VARIABLES=X,Y,Z
ZONE N=451, E=400, F=FEPOINT, ET=QUADRILATERAL
	0.0732999	4.20483e-018	2
	0.0731244	0.00567416	2
	0.0725768	0.0113648	2
	0.0716045	0.0170614	2
	0.0701467	0.0227122	2
	0.0681637	0.0282343	2
	0.0656612	0.0335413	2
	0.0626963	0.0385678	2
	0.0593557	0.0432834	2
	0.055719	0.0476945	2
	0.0518308	0.0518308	2
	0.0476945	0.055719	2
	0.0432834	0.0593557	2
	0.0385678	0.0626963	2
	0.0335413	0.0656612	2
	0.0282343	0.0681637	2
	0.0227122	0.0701467	2
	0.0170614	0.0716045	2
	0.0113648	0.0725768	2
	0.00567416	0.0731244	2
	1.93368e-009	0.0732999	2
	-0.00567416	0.0731244	2
	-0.0113648	0.0725768	2
	-0.0170614	0.0716045	2
	-0.0227122	0.0701467	2
	-0.0282343	0.0681637	2
	-0.0335413	0.0656612	2
	-0.0385678	0.0626963	2
	-0.0432834	0.0593557	2
	-0.0476945	0.055719	2
	-0.0518308	0.0518308	2
	-0.055719	0.0476945	2
	-0.0593557	0.0432834	2
	-0.0626963	0.0385678	2
	-0.0656612	0.0335413	2
	-0.0681637	0.0282343	2
	-0.0701467	0.0227122	2
	-0.0716045	0.0170614	2
	-0.0725768	0.0113648	2
	-0.0731244	0.00567416	2
	-0.0732999	3.21217e-009	2
	0.118633	4.79322e-018	1
	0.1181	0.00870839	0
	0.116573	0.0175087	0
	0.114216	0.0264539	0
	0.111206	0.0355231	0
	0.107684	0.0446042	0
	0.103753	0.0535157	0
	0.0994683	0.0620569	0
	0.0948101	0.070049	0
	0.0896674	0.0773519	0
	0.083886	0.083886	0
	0.0773519	0.0896674	0
	0.070049	0.0948101	0
	0.0620569	0.0994683	0
	0.0535157	0.103753	0
	0.0446042	0.107684	0
	0.0355231	0.111206	0
	0.0264539	0.114216	0
	0.0175087	0.116573	0
	0.00870839	0.1181	0
	2.96472e-009	0.118633	0
	-0.00870839	0.1181	0
	-0.0175087	0.116573	0
	-0.0264539	0.114216	0
	-0.0355231	0.111206	0
	-0.0446042	0.107684	0
	-0.0535157	0.103753	0
	-0.0620569	0.0994683	0
	-0.070049	0.0948101	0
	-0.0773519	0.0896674	0
	-0.083886	0.083886	0
	-0.0896674	0.0773519	0
	-0.0948101	0.070049	0
	-0.0994683	0.0620569	0
	-0.103753	0.0535157	0
	-0.107684	0.0446043	0
	-0.111206	0.0355231	0
	-0.114216	0.0264539	0
	-0.116573	0.0175087	0
	-0.1181	0.0087084	0
	-0.118633	5.66072e-009	1
	0.138265	5.00103e-018	1
	0.137525	0.00944067	0
	0.135404	0.0191902	0
	0.132169	0.0294416	0
	0.128165	0.0401966	0
	0.123713	0.0512436	0
	0.119049	0.0622029	0
	0.114276	0.0726394	0
	0.109315	0.0821757	0
	0.10392	0.0905692	0
	0.0977678	0.0977678	0
	0.0905692	0.10392	0
	0.0821757	0.109315	0
	0.0726394	0.114276	0
	0.0622029	0.119049	0
	0.0512436	0.123713	0
	0.0401966	0.128165	0
	0.0294416	0.132169	0
	0.0191902	0.135404	0
	0.00944068	0.137525	0
	3.20155e-009	0.138265	0
	-0.00944067	0.137525	0
	-0.0191902	0.135404	0
	-0.0294416	0.132169	0
	-0.0401966	0.128165	0
	-0.0512436	0.123713	0
	-0.0622029	0.119049	0
	-0.0726393	0.114276	0
	-0.0821757	0.109315	0
	-0.0905692	0.10392	0
	-0.0977678	0.0977678	0
	-0.10392	0.0905692	0
	-0.109315	0.0821757	0
	-0.114276	0.0726394	0
	-0.119049	0.0622029	0
	-0.123713	0.0512436	0
	-0.128165	0.0401966	0
	-0.132169	0.0294416	0
	-0.135404	0.0191902	0
	-0.137525	0.00944068	0
	-0.138265	6.7211e-009	1
	0.15073	5.31445e-018	1
	0.149795	0.00951774	0
	0.147108	0.019585	0
	0.143035	0.0305594	0
	0.13811	0.0424806	0
	0.132867	0.0550351	0
	0.127697	0.0676204	0
	0.12275	0.0795326	0
	0.11787	0.0901727	0
	0.112651	0.0991909	0
	0.106582	0.106582	0
	0.0991909	0.112651	0
	0.0901727	0.11787	0
	0.0795326	0.12275	0
	0.0676204	0.127697	0
	0.0550351	0.132867	0
	0.0424806	0.13811	0
	0.0305594	0.143035	0
	0.019585	0.147108	0
	0.00951774	0.149795	0
	3.21359e-009	0.15073	0
	-0.00951773	0.149795	0
	-0.019585	0.147108	0
	-0.0305594	0.143035	0
	-0.0424806	0.13811	0
	-0.0550351	0.132867	0
	-0.0676204	0.127697	0
	-0.0795326	0.12275	0
	-0.0901727	0.11787	0
	-0.0991909	0.112651	0
	-0.106582	0.106582	0
	-0.112651	0.0991909	0
	-0.11787	0.0901727	0
	-0.12275	0.0795326	0
	-0.127697	0.0676204	0
	-0.132867	0.0550351	0
	-0.13811	0.0424806	0
	-0.143035	0.0305594	0
	-0.147108	0.019585	0
	-0.149795	0.00951775	0
	-0.15073	7.39437e-009	1
	0.160201	5.17022e-018	1
	0.159076	0.00926709	0
	0.155822	0.0193551	0
	0.150888	0.0308033	0
	0.145028	0.043689	0
	0.139024	0.0575857	0
	0.133443	0.0716575	0
	0.128475	0.084913	0
	0.123869	0.096497	0
	0.119037	0.105931	0
	0.113279	0.113279	0
	0.105931	0.119037	0
	0.096497	0.123869	0
	0.084913	0.128475	0
	0.0716575	0.133443	0
	0.0575857	0.139024	0
	0.043689	0.145028	0
	0.0308033	0.150888	0
	0.0193551	0.155822	0
	0.00926709	0.159076	0
	3.11145e-009	0.160201	0
	-0.00926709	0.159076	0
	-0.0193551	0.155822	0
	-0.0308033	0.150888	0
	-0.043689	0.145028	0
	-0.0575857	0.139024	0
	-0.0716575	0.133443	0
	-0.084913	0.128475	0
	-0.096497	0.123869	0
	-0.105931	0.119037	0
	-0.113279	0.113279	0
	-0.119037	0.105931	0
	-0.123869	0.096497	0
	-0.128475	0.084913	0
	-0.133443	0.0716575	0
	-0.139024	0.0575858	0
	-0.145028	0.043689	0
	-0.150888	0.0308033	0
	-0.155822	0.0193551	0
	-0.159076	0.0092671	0
	-0.160201	7.90587e-009	1
	0.168273	5.60547e-018	1
	0.166958	0.00879644	0
	0.1631	0.0187161	0
	0.157225	0.0305178	0
	0.150365	0.0442893	0
	0.143588	0.0594759	0
	0.137641	0.0750068	0
	0.132754	0.0895954	0
	0.128563	0.102095	0
	0.124277	0.111837	0
	0.118987	0.118987	0
	0.111837	0.124277	0
	0.102095	0.128563	0
	0.0895955	0.132754	0
	0.0750068	0.137641	0
	0.0594759	0.143588	0
	0.0442893	0.150365	0
	0.0305178	0.157225	0
	0.0187161	0.1631	0
	0.00879645	0.166958	0
	2.93434e-009	0.168273	0
	-0.00879644	0.166958	0
	-0.0187161	0.1631	0
	-0.0305178	0.157225	0
	-0.0442893	0.150365	0
	-0.0594759	0.143588	0
	-0.0750068	0.137641	0
	-0.0895954	0.132754	0
	-0.102095	0.128563	0
	-0.111837	0.124277	0
	-0.118987	0.118987	0
	-0.124277	0.111837	0
	-0.128563	0.102095	0
	-0.132754	0.0895955	0
	-0.137641	0.0750068	0
	-0.143588	0.0594759	0
	-0.150365	0.0442893	0
	-0.157225	0.0305178	0
	-0.1631	0.0187162	0
	-0.166958	0.00879645	0
	-0.168273	8.34199e-009	1
	0.175764	6.22857e-018	1
	0.174239	0.00812916	0
	0.169689	0.0177533	0
	0.16274	0.0298388	0
	0.154769	0.0444865	0
	0.147182	0.0609646	0
	0.140895	0.0779815	0
	0.136174	0.0939752	0
	0.132542	0.107435	0
	0.128954	0.117457	0
	0.124284	0.124284	0
	0.117457	0.128954	0
	0.107435	0.132542	0
	0.0939752	0.136174	0
	0.0779816	0.140895	0
	0.0609646	0.147182	0
	0.0444865	0.154769	0
	0.0298388	0.16274	0
	0.0177533	0.169689	0
	0.00812916	0.174239	0
	2.68208e-009	0.175764	0
	-0.00812915	0.174239	0
	-0.0177533	0.169689	0
	-0.0298388	0.16274	0
	-0.0444865	0.154769	0
	-0.0609646	0.147182	0
	-0.0779815	0.140895	0
	-0.0939752	0.136174	0
	-0.107435	0.132542	0
	-0.117457	0.128954	0
	-0.124284	0.124284	0
	-0.128954	0.117457	0
	-0.132542	0.107435	0
	-0.136174	0.0939752	0
	-0.140895	0.0779816	0
	-0.147182	0.0609646	0
	-0.154769	0.0444866	0
	-0.16274	0.0298389	0
	-0.169689	0.0177533	0
	-0.174239	0.00812916	0
	-0.175764	8.74663e-009	1
	0.183209	5.96923e-018	1
	0.181453	0.00731405	0
	0.176073	0.0164575	0
	0.167797	0.0288446	0
	0.158571	0.0444002	0
	0.150128	0.062185	0
	0.143522	0.0807309	0
	0.139047	0.0982544	0
	0.13614	0.112866	0
	0.133478	0.123135	0
	0.129548	0.129548	0
	0.123135	0.133478	0
	0.112866	0.13614	0
	0.0982544	0.139047	0
	0.0807309	0.143522	0
	0.062185	0.150128	0
	0.0444002	0.158571	0
	0.0288446	0.167797	0
	0.0164575	0.176073	0
	0.00731405	0.181453	0
	2.39615e-009	0.183209	0
	-0.00731405	0.181453	0
	-0.0164575	0.176073	0
	-0.0288446	0.167797	0
	-0.0444002	0.158571	0
	-0.0621849	0.150128	0
	-0.0807309	0.143522	0
	-0.0982544	0.139047	0
	-0.112866	0.13614	0
	-0.123135	0.133478	0
	-0.129548	0.129548	0
	-0.133478	0.123135	0
	-0.13614	0.112866	0
	-0.139047	0.0982544	0
	-0.143522	0.0807309	0
	-0.150128	0.062185	0
	-0.158571	0.0444003	0
	-0.167797	0.0288447	0
	-0.176073	0.0164575	0
	-0.181453	0.00731406	0
	-0.183209	9.14856e-009	1
	0.191268	5.32022e-018	1
	0.189136	0.00618584	0
	0.182446	0.015035	0
	0.172568	0.0276992	0
	0.161955	0.0441191	0
	0.15261	0.0632132	0
	0.145716	0.0833224	0
	0.141611	0.102438	0
	0.13964	0.118378	0
	0.138114	0.129365	0
	0.135247	0.135247	0
	0.129365	0.138114	0
	0.118378	0.13964	0
	0.102438	0.141611	0
	0.0833224	0.145716	0
	0.0632132	0.15261	0
	0.0441191	0.161955	0
	0.0276992	0.172568	0
	0.015035	0.182446	0
	0.00618585	0.189136	0
	1.9375e-009	0.191268	0
	-0.00618584	0.189136	0
	-0.015035	0.182446	0
	-0.0276992	0.172568	0
	-0.0441191	0.161955	0
	-0.0632132	0.15261	0
	-0.0833224	0.145716	0
	-0.102438	0.141611	0
	-0.118378	0.13964	0
	-0.129365	0.138114	0
	-0.135247	0.135247	0
	-0.138114	0.129365	0
	-0.13964	0.118378	0
	-0.141611	0.102438	0
	-0.145716	0.0833224	0
	-0.15261	0.0632132	0
	-0.161955	0.0441191	0
	-0.172568	0.0276993	0
	-0.182446	0.015035	0
	-0.189136	0.00618585	0
	-0.191268	9.58391e-009	1
	0.200664	5.8498e-018	1
	0.198184	0.00503441	0
	0.189947	0.0126167	0
	0.177631	0.0257881	0
	0.165131	0.0434872	0
	0.154727	0.0640902	0
	0.147515	0.0860151	0
	0.143839	0.107369	0
	0.143234	0.125392	0
	0.143697	0.136577	0
	0.141891	0.141891	0
	0.136577	0.143697	0
	0.125392	0.143234	0
	0.107369	0.143839	0
	0.0860151	0.147515	0
	0.0640902	0.154727	0
	0.0434872	0.165131	0
	0.0257881	0.177631	0
	0.0126167	0.189947	0
	0.00503441	0.198184	0
	1.62009e-009	0.200664	0
	-0.00503441	0.198184	0
	-0.0126167	0.189947	0
	-0.0257881	0.177631	0
	-0.0434872	0.165131	0
	-0.0640902	0.154727	0
	-0.0860151	0.147515	0
	-0.107369	0.143839	0
	-0.125392	0.143234	0
	-0.136577	0.143697	0
	-0.141891	0.141891	0
	-0.143697	0.136577	0
	-0.143234	0.125392	0
	-0.143839	0.107369	0
	-0.147515	0.0860151	0
	-0.154727	0.0640902	0
	-0.165131	0.0434872	0
	-0.177631	0.0257881	0
	-0.189947	0.0126167	0
	-0.198184	0.00503442	0
	-0.200664	1.00915e-008	1
	0.213133	6.35625e-018	2
	0.208816	0.00403379	2
	0.195778	0.0123271	2
	0.181303	0.025499	2
	0.167652	0.0436021	2
	0.156622	0.064875	2
	0.14938	0.0877169	2
	0.146231	0.11017	2
	0.147153	0.129719	2
	0.150507	0.144803	2
	0.150708	0.150708	2
	0.144803	0.150507	2
	0.129719	0.147153	2
	0.11017	0.146231	2
	0.0877169	0.14938	2
	0.064875	0.156622	2
	0.0436021	0.167652	2
	0.025499	0.181303	2
	0.0123271	0.195778	2
	0.00403379	0.208816	2
	1.08464e-009	0.213133	2
	-0.00403379	0.208816	2
	-0.0123271	0.195778	2
	-0.025499	0.181303	2
	-0.0436021	0.167653	2
	-0.064875	0.156622	2
	-0.0877169	0.14938	2
	-0.11017	0.146231	2
	-0.129719	0.147153	2
	-0.144803	0.150507	2
	-0.150708	0.150708	2
	-0.150507	0.144803	2
	-0.147153	0.129719	2
	-0.146231	0.11017	2
	-0.14938	0.0877169	2
	-0.156622	0.064875	2
	-0.167652	0.0436021	2
	-0.181303	0.025499	2
	-0.195778	0.0123271	2
	-0.208816	0.0040338	2
	-0.213133	1.0765e-008	2
	1	2	43	42
	2	3	44	43
	3	4	45	44
	4	5	46	45
	5	6	47	46
	6	7	48	47
	7	8	49	48
	8	9	50	49
	9	10	51	50
	10	11	52	51
	11	12	53	52
	12	13	54	53
	13	14	55	54
	14	15	56	55
	15	16	57	56
	16	17	58	57
	17	18	59	58
	18	19	60	59
	19	20	61	60
	20	21	62	61
	21	22	63	62
	22	23	64	63
	23	24	65	64
	24	25	66	65
	25	26	67	66
	26	27	68	67
	27	28	69	68
	28	29	70	69
	29	30	71	70
	30	31	72	71
	31	32	73	72
	32	33	74	73
	33	34	75	74
	34	35	76	75
	35	36	77	76
	36	37	78	77
	37	38	79	78
	38	39	80	79
	39	40	81	80
	40	41	82	81
	42	43	84	83
	43	44	85	84
	44	45	86	85
	45	46	87	86
	46	47	88	87
	47	48	89	88
	48	49	90	89
	49	50	91	90
	50	51	92	91
	51	52	93	92
	52	53	94	93
	53	54	95	94
	54	55	96	95
	55	56	97	96
	56	57	98	97
	57	58	99	98
	58	59	100	99
	59	60	101	100
	60	61	102	101
	61	62	103	102
	62	63	104	103
	63	64	105	104
	64	65	106	105
	65	66	107	106
	66	67	108	107
	67	68	109	108
	68	69	110	109
	69	70	111	110
	70	71	112	111
	71	72	113	112
	72	73	114	113
	73	74	115	114
	74	75	116	115
	75	76	117	116
	76	77	118	117
	77	78	119	118
	78	79	120	119
	79	80	121	120
	80	81	122	121
	81	82	123	122
	83	84	125	124
	84	85	126	125
	85	86	127	126
	86	87	128	127
	87	88	129	128
	88	89	130	129
	89	90	131	130
	90	91	132	131
	91	92	133	132
	92	93	134	133
	93	94	135	134
	94	95	136	135
	95	96	137	136
	96	97	138	137
	97	98	139	138
	98	99	140	139
	99	100	141	140
	100	101	142	141
	101	102	143	142
	102	103	144	143
	103	104	145	144
	104	105	146	145
	105	106	147	146
	106	107	148	147
	107	108	149	148
	108	109	150	149
	109	110	151	150
	110	111	152	151
	111	112	153	152
	112	113	154	153
	113	114	155	154
	114	115	156	155
	115	116	157	156
	116	117	158	157
	117	118	159	158
	118	119	160	159
	119	120	161	160
	120	121	162	161
	121	122	163	162
	122	123	164	163
	124	125	166	165
	125	126	167	166
	126	127	168	167
	127	128	169	168
	128	129	170	169
	129	130	171	170
	130	131	172	171
	131	132	173	172
	132	133	174	173
	133	134	175	174
	134	135	176	175
	135	136	177	176
	136	137	178	177
	137	138	179	178
	138	139	180	179
	139	140	181	180
	140	141	182	181
	141	142	183	182
	142	143	184	183
	143	144	185	184
	144	145	186	185
	145	146	187	186
	146	147	188	187
	147	148	189	188
	148	149	190	189
	149	150	191	190
	150	151	192	191
	151	152	193	192
	152	153	194	193
	153	154	195	194
	154	155	196	195
	155	156	197	196
	156	157	198	197
	157	158	199	198
	158	159	200	199
	159	160	201	200
	160	161	202	201
	161	162	203	202
	162	163	204	203
	163	164	205	204
	165	166	207	206
	166	167	208	207
	167	168	209	208
	168	169	210	209
	169	170	211	210
	170	171	212	211
	171	172	213	212
	172	173	214	213
	173	174	215	214
	174	175	216	215
	175	176	217	216
	176	177	218	217
	177	178	219	218
	178	179	220	219
	179	180	221	220
	180	181	222	221
	181	182	223	222
	182	183	224	223
	183	184	225	224
	184	185	226	225
	185	186	227	226
	186	187	228	227
	187	188	229	228
	188	189	230	229
	189	190	231	230
	190	191	232	231
	191	192	233	232
	192	193	234	233
	193	194	235	234
	194	195	236	235
	195	196	237	236
	196	197	238	237
	197	198	239	238
	198	199	240	239
	199	200	241	240
	200	201	242	241
	201	202	243	242
	202	203	244	243
	203	204	245	244
	204	205	246	245
	206	207	248	247
	207	208	249	248
	208	209	250	249
	209	210	251	250
	210	211	252	251
	211	212	253	252
	212	213	254	253
	213	214	255	254
	214	215	256	255
	215	216	257	256
	216	217	258	257
	217	218	259	258
	218	219	260	259
	219	220	261	260
	220	221	262	261
	221	222	263	262
	222	223	264	263
	223	224	265	264
	224	225	266	265
	225	226	267	266
	226	227	268	267
	227	228	269	268
	228	229	270	269
	229	230	271	270
	230	231	272	271
	231	232	273	272
	232	233	274	273
	233	234	275	274
	234	235	276	275
	235	236	277	276
	236	237	278	277
	237	238	279	278
	238	239	280	279
	239	240	281	280
	240	241	282	281
	241	242	283	282
	242	243	284	283
	243	244	285	284
	244	245	286	285
	245	246	287	286
	247	248	289	288
	248	249	290	289
	249	250	291	290
	250	251	292	291
	251	252	293	292
	252	253	294	293
	253	254	295	294
	254	255	296	295
	255	256	297	296
	256	257	298	297
	257	258	299	298
	258	259	300	299
	259	260	301	300
	260	261	302	301
	261	262	303	302
	262	263	304	303
	263	264	305	304
	264	265	306	305
	265	266	307	306
	266	267	308	307
	267	268	309	308
	268	269	310	309
	269	270	311	310
	270	271	312	311
	271	272	313	312
	272	273	314	313
	273	274	315	314
	274	275	316	315
	275	276	317	316
	276	277	318	317
	277	278	319	318
	278	279	320	319
	279	280	321	320
	280	281	322	321
	281	282	323	322
	282	283	324	323
	283	284	325	324
	284	285	326	325
	285	286	327	326
	286	287	328	327
	288	289	330	329
	289	290	331	330
	290	291	332	331
	291	292	333	332
	292	293	334	333
	293	294	335	334
	294	295	336	335
	295	296	337	336
	296	297	338	337
	297	298	339	338
	298	299	340	339
	299	300	341	340
	300	301	342	341
	301	302	343	342
	302	303	344	343
	303	304	345	344
	304	305	346	345
	305	306	347	346
	306	307	348	347
	307	308	349	348
	308	309	350	349
	309	310	351	350
	310	311	352	351
	311	312	353	352
	312	313	354	353
	313	314	355	354
	314	315	356	355
	315	316	357	356
	316	317	358	357
	317	318	359	358
	318	319	360	359
	319	320	361	360
	320	321	362	361
	321	322	363	362
	322	323	364	363
	323	324	365	364
	324	325	366	365
	325	326	367	366
	326	327	368	367
	327	328	369	368
	329	330	371	370
	330	331	372	371
	331	332	373	372
	332	333	374	373
	333	334	375	374
	334	335	376	375
	335	336	377	376
	336	337	378	377
	337	338	379	378
	338	339	380	379
	339	340	381	380
	340	341	382	381
	341	342	383	382
	342	343	384	383
	343	344	385	384
	344	345	386	385
	345	346	387	386
	346	347	388	387
	347	348	389	388
	348	349	390	389
	349	350	391	390
	350	351	392	391
	351	352	393	392
	352	353	394	393
	353	354	395	394
	354	355	396	395
	355	356	397	396
	356	357	398	397
	357	358	399	398
	358	359	400	399
	359	360	401	400
	360	361	402	401
	361	362	403	402
	362	363	404	403
	363	364	405	404
	364	365	406	405
	365	366	407	406
	366	367	408	407
	367	368	409	408
	368	369	410	409
	370	371	412	411
	371	372	413	412
	372	373	414	413
	373	374	415	414
	374	375	416	415
	375	376	417	416
	376	377	418	417
	377	378	419	418
	378	379	420	419
	379	380	421	420
	380	381	422	421
	381	382	423	422
	382	383	424	423
	383	384	425	424
	384	385	426	425
	385	386	427	426
	386	387	428	427
	387	388	429	428
	388	389	430	429
	389	390	431	430
	390	391	432	431
	391	392	433	432
	392	393	434	433
	393	394	435	434
	394	395	436	435
	395	396	437	436
	396	397	438	437
	397	398	439	438
	398	399	440	439
	399	400	441	440
	400	401	442	441
	401	402	443	442
	402	403	444	443
	403	404	445	444
	404	405	446	445
	405	406	447	446
	406	407	448	447
	407	408	449	448
	408	409	450	449
	409	410	451	450
