VARIABLES=X,Y
ZONE N=1111, E=1000, F=FEPOINT, ET=QUADRILATERAL
	0.930004	3.59647e-017
	0.930004	0.0087564
	0.930004	0.0187772
	0.930004	0.0290861
	0.930004	0.0392919
	0.930004	0.0492215
	0.930004	0.0587478
	0.930004	0.0677938
	0.930004	0.0766103
	0.930004	0.0858534
	0.930004	0.1
	0.930839	3.06389e-017
	0.930676	0.00876207
	0.930625	0.0187919
	0.930612	0.0291036
	0.930608	0.0393023
	0.930609	0.0492353
	0.930614	0.0587524
	0.930618	0.0678061
	0.930594	0.0765955
	0.930519	0.0858492
	0.93019	0.1
	0.931713	-7.96103e-018
	0.931379	0.00879532
	0.93128	0.0188492
	0.931257	0.0291574
	0.931251	0.0393459
	0.931256	0.0492772
	0.93127	0.0587952
	0.931278	0.067861
	0.931241	0.076629
	0.931076	0.085883
	0.930399	0.1
	0.932546	-4.84377e-017
	0.932046	0.00885346
	0.931904	0.0189428
	0.931872	0.0292411
	0.931863	0.0394188
	0.931871	0.0493451
	0.931892	0.0588808
	0.931904	0.0679599
	0.931857	0.0767247
	0.931601	0.0859433
	0.930588	0.1
	0.933352	-5.53515e-017
	0.93269	0.00891869
	0.932512	0.0190435
	0.932473	0.0293353
	0.932461	0.0394988
	0.93247	0.0494243
	0.932497	0.0589754
	0.932513	0.0680641
	0.932458	0.0768013
	0.932117	0.0859571
	0.930768	0.1
	0.934144	-4.61314e-017
	0.933324	0.00898167
	0.933115	0.0191372
	0.933071	0.0294219
	0.933055	0.039572
	0.933064	0.049497
	0.933095	0.0590614
	0.933119	0.0681474
	0.933061	0.0768341
	0.932638	0.0859201
	0.930944	0.1
	0.934926	-6.77081e-018
	0.933953	0.00903985
	0.933718	0.0192162
	0.933669	0.0294915
	0.933649	0.0396288
	0.933658	0.0495533
	0.933692	0.0591277
	0.933726	0.0682003
	0.93367	0.0768246
	0.933166	0.0858497
	0.931116	0.1
	0.9357	3.33735e-017
	0.934577	0.00909182
	0.934322	0.0192783
	0.934269	0.0295399
	0.934245	0.0396644
	0.934252	0.0495879
	0.934289	0.0591692
	0.934337	0.0682202
	0.934288	0.076781
	0.933702	0.0857618
	0.931285	0.1
	0.936465	5.55258e-017
	0.9352	0.00913714
	0.934926	0.0193228
	0.934871	0.029566
	0.934842	0.039677
	0.934846	0.0495985
	0.934886	0.059183
	0.934951	0.0682072
	0.934913	0.0767101
	0.934244	0.0856663
	0.93145	0.1
	0.937222	5.61699e-017
	0.93582	0.00917548
	0.935531	0.0193502
	0.935473	0.0295701
	0.93544	0.039666
	0.93544	0.0495841
	0.935484	0.0591677
	0.935569	0.0681625
	0.935546	0.0766174
	0.934791	0.0855698
	0.931612	0.1
	0.93797	2.80797e-017
	0.936439	0.00920679
	0.936137	0.0193611
	0.936076	0.0295532
	0.936038	0.0396317
	0.936035	0.0495443
	0.936082	0.0591231
	0.936191	0.068088
	0.936184	0.0765074
	0.935341	0.0854777
	0.931772	0.1
	0.938711	-5.81513e-018
	0.937057	0.00923093
	0.936744	0.0193563
	0.93668	0.029516
	0.936637	0.0395747
	0.936629	0.049479
	0.936681	0.0590491
	0.936815	0.0679858
	0.936825	0.0763841
	0.935892	0.0853943
	0.931929	0.1
	0.939443	-3.62506e-017
	0.937675	0.00924778
	0.937353	0.0193361
	0.937285	0.0294591
	0.937237	0.039495
	0.937223	0.0493878
	0.93728	0.058946
	0.937441	0.0678582
	0.937469	0.0762512
	0.936443	0.0853236
	0.932086	0.1
	0.940168	-4.86115e-017
	0.938293	0.00925718
	0.937962	0.019301
	0.93789	0.029383
	0.937836	0.0393926
	0.937817	0.0492704
	0.93788	0.0588142
	0.938068	0.0677077
	0.938114	0.0761123
	0.93699	0.0852688
	0.932243	0.1
	0.940886	-3.99075e-017
	0.938911	0.00925898
	0.938573	0.019251
	0.938496	0.0292878
	0.938436	0.0392676
	0.938412	0.0491267
	0.93848	0.0586549
	0.938695	0.0675368
	0.938757	0.0759706
	0.937532	0.0852325
	0.932401	0.1
	0.941597	-1.85587e-017
	0.939531	0.00925304
	0.939185	0.0191866
	0.939102	0.0291737
	0.939036	0.0391198
	0.939007	0.0489566
	0.93908	0.0584692
	0.939321	0.0673485
	0.939398	0.0758291
	0.938067	0.0852166
	0.932562	0.1
	0.942303	9.1762e-018
	0.940153	0.00923934
	0.939798	0.0191079
	0.93971	0.029041
	0.939637	0.0389494
	0.939602	0.0487607
	0.93968	0.058259
	0.939945	0.0671458
	0.940035	0.075691
	0.938593	0.0852223
	0.932725	0.1
	0.943004	2.85757e-017
	0.940777	0.0092179
	0.940413	0.0190154
	0.940318	0.0288902
	0.940239	0.0387569
	0.940198	0.0485401
	0.94028	0.0580266
	0.940566	0.0669316
	0.940666	0.075559
	0.939109	0.0852505
	0.932893	0.1
	0.9437	3.56115e-017
	0.941403	0.00918888
	0.94103	0.0189098
	0.940927	0.028722
	0.940841	0.0385434
	0.940794	0.0482964
	0.940878	0.0577746
	0.941183	0.0667093
	0.94129	0.0754358
	0.939613	0.0853011
	0.933065	0.1
	0.944393	2.77136e-017
	0.942032	0.00915253
	0.941649	0.018792
	0.941537	0.0285376
	0.941444	0.0383101
	0.94139	0.0480317
	0.941475	0.057506
	0.941795	0.0664821
	0.941907	0.0753242
	0.940104	0.0853738
	0.933244	0.1
	0.945084	1.04191e-017
	0.942665	0.00910924
	0.94227	0.0186629
	0.942148	0.0283384
	0.942048	0.0380592
	0.941987	0.0477487
	0.94207	0.0572241
	0.942402	0.0662533
	0.942515	0.0752267
	0.940582	0.0854679
	0.93343	0.1
	0.945772	-7.24943e-018
	0.943301	0.00905951
	0.942893	0.018524
	0.942761	0.0281262
	0.942652	0.037793
	0.942584	0.0474508
	0.942662	0.0569325
	0.943003	0.0660259
	0.943113	0.0751455
	0.941045	0.0855823
	0.933624	0.1
	0.946459	-1.93576e-017
	0.943941	0.00900395
	0.943519	0.0183765
	0.943376	0.0279033
	0.943258	0.0375145
	0.943181	0.0471413
	0.943251	0.0566348
	0.943596	0.0658032
	0.943701	0.0750828
	0.941495	0.0857157
	0.933827	0.1
	0.947146	-2.13559e-017
	0.944585	0.00894331
	0.944148	0.0182222
	0.943992	0.027672
	0.943865	0.037227
	0.943777	0.0468244
	0.943837	0.0563346
	0.944183	0.065588
	0.944278	0.0750403
	0.941931	0.0858666
	0.934038	0.1
	0.947833	-1.54881e-017
	0.945234	0.0088784
	0.94478	0.0180629
	0.94461	0.0274351
	0.944472	0.0369342
	0.944373	0.0465039
	0.94442	0.0560358
	0.944762	0.0653832
	0.944844	0.0750196
	0.942353	0.0860335
	0.93426	0.1
	0.94852	-4.98326e-018
	0.945886	0.00881011
	0.945414	0.0179003
	0.94523	0.0271954
	0.94508	0.0366398
	0.944968	0.0461843
	0.944999	0.0557419
	0.945334	0.0651913
	0.945398	0.0750217
	0.942763	0.0862147
	0.934492	0.1
	0.949209	5.08765e-018
	0.946543	0.00873939
	0.946051	0.0177364
	0.945851	0.0269559
	0.945688	0.0363477
	0.945562	0.0458696
	0.945573	0.0554566
	0.945897	0.0650147
	0.94594	0.0750474
	0.94316	0.0864086
	0.934734	0.1
	0.949899	1.08307e-017
	0.947204	0.00866722
	0.946691	0.0175731
	0.946473	0.0267197
	0.946297	0.0360618
	0.946154	0.045564
	0.946144	0.0551834
	0.946453	0.0648556
	0.94647	0.0750971
	0.943545	0.0866135
	0.934988	0.1
	0.950592	1.0959e-017
	0.947869	0.00859458
	0.947334	0.0174123
	0.947097	0.0264896
	0.946905	0.0357858
	0.946744	0.0452715
	0.94671	0.0549256
	0.947	0.0647159
	0.946989	0.0751708
	0.94392	0.0868277
	0.935253	0.1
	0.951286	6.6621e-018
	0.948537	0.00852242
	0.947979	0.0172559
	0.947721	0.0262685
	0.947512	0.0355232
	0.947332	0.0449957
	0.947271	0.0546861
	0.94754	0.0645975
	0.947495	0.0752681
	0.944285	0.0870497
	0.93553	0.1
	0.951983	9.78505e-019
	0.949209	0.00845164
	0.948625	0.0171055
	0.948346	0.0260589
	0.948119	0.0352774
	0.947917	0.04474
	0.947828	0.0544678
	0.948072	0.0645018
	0.947989	0.0753884
	0.944642	0.0872779
	0.93582	0.1
	0.952682	-3.49051e-018
	0.949884	0.00838306
	0.949273	0.0169627
	0.94897	0.0258635
	0.948723	0.0350512
	0.9485	0.0445074
	0.94838	0.0542733
	0.948596	0.0644301
	0.948471	0.0755307
	0.944992	0.0875108
	0.936121	0.1
	0.953383	-5.42415e-018
	0.950561	0.00831736
	0.949922	0.0168291
	0.949594	0.0256842
	0.949326	0.0348472
	0.949079	0.0443007
	0.948928	0.0541047
	0.949113	0.0643835
	0.948942	0.0756938
	0.945335	0.0877469
	0.936436	0.1
	0.954086	-4.73086e-018
	0.95124	0.00825512
	0.950571	0.0167059
	0.950217	0.0255232
	0.949926	0.0346676
	0.949655	0.0441219
	0.94947	0.0539639
	0.949622	0.0643628
	0.949403	0.0758762
	0.945674	0.0879849
	0.936763	0.1
	0.954791	-2.48171e-018
	0.95192	0.00819674
	0.951219	0.0165942
	0.950837	0.0253819
	0.950523	0.0345142
	0.950227	0.0439731
	0.950007	0.0538525
	0.950124	0.0643686
	0.949853	0.0760763
	0.946009	0.0882234
	0.937103	0.1
	0.955497	-2.75939e-019
	0.952601	0.00814243
	0.951866	0.0164949
	0.951455	0.0252619
	0.951117	0.0343885
	0.950794	0.0438554
	0.95054	0.0537715
	0.950619	0.064401
	0.950293	0.0762923
	0.946342	0.0884611
	0.937456	0.1
	0.956204	1.39668e-018
	0.953281	0.00809225
	0.952511	0.0164091
	0.95207	0.0251644
	0.951706	0.0342917
	0.951357	0.0437702
	0.951067	0.053722
	0.951108	0.0644599
	0.950723	0.0765221
	0.946673	0.0886968
	0.937822	0.1
	0.956912	2.35071e-018
	0.953961	0.00804603
	0.953154	0.0163373
	0.95268	0.0250901
	0.952291	0.0342244
	0.951915	0.0437179
	0.951589	0.0537043
	0.951589	0.0645451
	0.951146	0.0767637
	0.947005	0.0889293
	0.938201	0.1
	0.957619	2.35082e-018
	0.95464	0.00800348
	0.953793	0.0162802
	0.953286	0.0250398
	0.952871	0.0341873
	0.952468	0.0436991
	0.952106	0.0537186
	0.952065	0.0646557
	0.951561	0.0770149
	0.947338	0.0891576
	0.938593	0.1
	0.958326	1.59196e-018
	0.955317	0.00796419
	0.954427	0.0162386
	0.953887	0.0250141
	0.953446	0.0341805
	0.953016	0.0437137
	0.952618	0.0537648
	0.952534	0.0647907
	0.951969	0.0772736
	0.947674	0.0893805
	0.938998	0.1
	0.959032	3.8396e-020
	0.955992	0.00792784
	0.955057	0.0162132
	0.954483	0.0250133
	0.954015	0.034204
	0.953558	0.0437617
	0.953124	0.0538424
	0.952998	0.064949
	0.952372	0.0775376
	0.948014	0.0895972
	0.939416	0.1
	0.959737	-1.58704e-018
	0.956666	0.00789441
	0.955683	0.0162049
	0.955073	0.0250376
	0.954578	0.0342579
	0.954094	0.0438427
	0.953626	0.0539508
	0.953457	0.0651288
	0.95277	0.0778047
	0.948358	0.0898067
	0.939847	0.1
	0.960445	-2.23894e-018
	0.95734	0.00786476
	0.956304	0.0162149
	0.955658	0.0250874
	0.955136	0.0343418
	0.954625	0.0439561
	0.954123	0.0540889
	0.95391	0.0653286
	0.953165	0.0780729
	0.948709	0.0900082
	0.940289	0.1
	0.96116	-1.31642e-018
	0.958018	0.00784129
	0.956925	0.0162452
	0.956239	0.0251632
	0.955689	0.0344555
	0.955151	0.0441014
	0.954615	0.0542558
	0.954359	0.0655463
	0.953557	0.0783399
	0.949066	0.0902009
	0.940744	0.1
	0.961892	4.5467e-019
	0.958708	0.00782866
	0.95755	0.0162981
	0.95682	0.0252659
	0.956238	0.0345991
	0.955673	0.0442778
	0.955103	0.0544502
	0.954804	0.06578
	0.953948	0.0786039
	0.949431	0.090384
	0.94121	0.1
	0.962657	1.88971e-018
	0.959422	0.00783336
	0.958191	0.0163768
	0.957407	0.0253972
	0.956788	0.034773
	0.956192	0.0444849
	0.955588	0.0546711
	0.955247	0.0660275
	0.954339	0.0788629
	0.949804	0.0905569
	0.941687	0.1
	0.963477	1.39605e-018
	0.960179	0.0078613
	0.958862	0.0164834
	0.95801	0.025559
	0.957343	0.034978
	0.95671	0.0447225
	0.956071	0.0549175
	0.955687	0.066287
	0.954731	0.079115
	0.950187	0.0907189
	0.942175	0.1
	0.964373	-1.00348e-018
	0.961	0.00791362
	0.959584	0.0166176
	0.958644	0.0257524
	0.957912	0.0352154
	0.957234	0.044991
	0.956554	0.0551891
	0.956126	0.0665565
	0.955125	0.0793584
	0.950579	0.0908693
	0.942673	0.1
	0.965349	-1.85214e-018
	0.961894	0.00798508
	0.960372	0.0167747
	0.959327	0.025976
	0.95851	0.0354859
	0.957768	0.045291
	0.95704	0.0554861
	0.956567	0.0668344
	0.955522	0.0795913
	0.950982	0.0910074
	0.94318	0.1
	0.966387	7.73546e-019
	0.962852	0.00806759
	0.961227	0.0169474
	0.960068	0.0262245
	0.959147	0.0357876
	0.958324	0.0456225
	0.957535	0.0558092
	0.957011	0.0671194
	0.955926	0.0798116
	0.951396	0.0911328
	0.943697	0.1
	0.967461	1.23169e-018
	0.96385	0.00815574
	0.962134	0.0171294
	0.960867	0.0264906
	0.959833	0.0361154
	0.95891	0.0459833
	0.958046	0.056159
	0.957465	0.0674107
	0.956338	0.0800175
	0.951823	0.0912445
	0.944222	0.1
	0.968546	-3.52238e-019
	0.964866	0.00824781
	0.963072	0.0173182
	0.961711	0.0267681
	0.960567	0.0364619
	0.959534	0.0463683
	0.95858	0.056534
	0.957931	0.0677078
	0.956763	0.0802068
	0.952263	0.091342
	0.944755	0.1
	0.969626	-3.70146e-019
	0.965881	0.00834407
	0.964022	0.0175138
	0.962583	0.0270542
	0.961341	0.0368204
	0.960197	0.0467704
	0.959143	0.0569299
	0.958419	0.0680105
	0.957203	0.0803774
	0.952718	0.0914244
	0.945295	0.1
	0.970691	2.12554e-020
	0.966885	0.00844503
	0.964971	0.0177169
	0.963469	0.027348
	0.962143	0.0371867
	0.960896	0.0471822
	0.959739	0.0573405
	0.958932	0.0683185
	0.957665	0.0805284
	0.953191	0.0914907
	0.945844	0.1
	0.971736	3.78555e-019
	0.967872	0.00855108
	0.965911	0.0179278
	0.964358	0.0276492
	0.962964	0.0375582
	0.961626	0.0475985
	0.96037	0.0577587
	0.959476	0.0686312
	0.958153	0.0806604
	0.953684	0.0915397
	0.946401	0.1
	0.972759	-4.85899e-020
	0.96884	0.00866224
	0.966838	0.0181464
	0.965245	0.0279573
	0.963796	0.0379335
	0.96238	0.0480155
	0.961033	0.0581791
	0.960054	0.0689472
	0.958669	0.080776
	0.9542	0.0915705
	0.946968	0.1
	0.973759	-7.00442e-019
	0.969787	0.00877852
	0.967749	0.0183722
	0.966124	0.0282716
	0.964632	0.0383113
	0.963152	0.0484309
	0.961724	0.0585971
	0.960664	0.0692646
	0.959217	0.0808792
	0.954745	0.0915823
	0.947547	0.1
	0.974734	7.23615e-019
	0.970711	0.00889962
	0.968645	0.0186044
	0.966994	0.0285906
	0.965469	0.0386902
	0.963938	0.0488426
	0.962441	0.0590096
	0.961305	0.0695813
	0.959797	0.0809742
	0.95532	0.0915757
	0.948141	0.1
	0.975684	2.63674e-019
	0.971615	0.00902532
	0.969523	0.0188421
	0.967856	0.0289132
	0.966306	0.0390686
	0.964734	0.0492489
	0.963181	0.059414
	0.961978	0.0698951
	0.960409	0.0810647
	0.955928	0.0915516
	0.948754	0.1
	0.97661	-2.60544e-018
	0.972497	0.00915509
	0.970386	0.0190842
	0.968707	0.0292375
	0.967141	0.0394445
	0.96554	0.0496481
	0.963942	0.059808
	0.96268	0.070204
	0.961055	0.0811545
	0.956573	0.0915129
	0.949392	0.1
	0.977511	3.63426e-019
	0.973358	0.00928867
	0.971233	0.0193294
	0.969549	0.0295619
	0.967974	0.0398164
	0.966353	0.0500383
	0.964723	0.0601896
	0.963413	0.070506
	0.961736	0.0812472
	0.957258	0.0914638
	0.950063	0.1
	0.978387	2.92281e-018
	0.974198	0.00942538
	0.972066	0.0195767
	0.970381	0.0298847
	0.968805	0.0401821
	0.967173	0.0504182
	0.965523	0.0605569
	0.964177	0.0707991
	0.962457	0.0813469
	0.957989	0.0914128
	0.950783	0.1
	0.979239	-2.43817e-018
	0.97502	0.00956497
	0.972884	0.0198246
	0.971206	0.0302041
	0.969633	0.0405401
	0.968	0.0507859
	0.966341	0.0609087
	0.964972	0.0710812
	0.963221	0.0814569
	0.958774	0.091372
	0.951571	0.1
	0.980068	-7.90036e-019
	0.975821	0.00970664
	0.973689	0.020072
	0.972022	0.0305184
	0.970459	0.0408884
	0.968832	0.0511405
	0.967176	0.0612438
	0.965798	0.0713511
	0.964032	0.0815787
	0.95962	0.0913557
	0.952456	0.1
	0.980873	5.33607e-018
	0.976606	0.00985017
	0.974481	0.0203176
	0.972831	0.0308258
	0.971283	0.0412257
	0.969669	0.0514803
	0.968025	0.0615617
	0.966653	0.071607
	0.964888	0.0817113
	0.960532	0.0913694
	0.953452	0.1
	0.981655	-4.05982e-018
	0.977373	0.00999467
	0.975262	0.02056
	0.973632	0.0311249
	0.972105	0.0415501
	0.970509	0.0518047
	0.968887	0.0618618
	0.967532	0.0718486
	0.965785	0.0818502
	0.961504	0.0914097
	0.954553	0.1
	0.982415	-4.37029e-018
	0.978124	0.0101399
	0.976032	0.020798
	0.974428	0.0314139
	0.972924	0.0418605
	0.971353	0.0521121
	0.969758	0.0621442
	0.96843	0.0720749
	0.966713	0.0819896
	0.962525	0.0914648
	0.955733	0.1
	0.983154	5.05586e-018
	0.978859	0.0102849
	0.976793	0.0210304
	0.975217	0.0316917
	0.973742	0.0421552
	0.972198	0.0524022
	0.970638	0.0624081
	0.969342	0.072286
	0.967665	0.0821245
	0.963579	0.0915268
	0.956964	0.1
	0.983871	-2.1591e-018
	0.979582	0.0104295
	0.977544	0.0212559
	0.976002	0.0319565
	0.974557	0.0424335
	0.973045	0.0526735
	0.971523	0.0626536
	0.970265	0.0724809
	0.968633	0.0822515
	0.964657	0.0915877
	0.958228	0.1
	0.984568	2.36973e-020
	0.98029	0.0105725
	0.978288	0.0214734
	0.976781	0.0322075
	0.975371	0.0426938
	0.973893	0.0529256
	0.972413	0.0628798
	0.971196	0.0726598
	0.969614	0.0823685
	0.965751	0.0916466
	0.959512	0.1
	0.985245	1.04793e-017
	0.980987	0.0107138
	0.979023	0.0216817
	0.977558	0.0324432
	0.976182	0.0429356
	0.974743	0.0531573
	0.973307	0.0630866
	0.972134	0.0728219
	0.970603	0.0824749
	0.966858	0.0916995
	0.960811	0.1
	0.985905	-4.00843e-018
	0.981672	0.0108523
	0.979754	0.0218797
	0.978329	0.0326629
	0.976993	0.0431576
	0.975593	0.0533686
	0.974204	0.0632732
	0.973077	0.0729676
	0.971601	0.08257
	0.967974	0.0917485
	0.962122	0.1
	0.986545	-1.15464e-017
	0.982348	0.0109878
	0.980477	0.0220667
	0.979099	0.0328655
	0.977802	0.0433597
	0.976445	0.0535583
	0.975104	0.0634399
	0.974025	0.0730961
	0.972604	0.0826539
	0.969101	0.0917904
	0.963441	0.1
	0.98717	-3.30389e-018
	0.983014	0.0111192
	0.981197	0.0222415
	0.979864	0.0330506
	0.978611	0.0435408
	0.977297	0.0537269
	0.976008	0.0635859
	0.974977	0.0732081
	0.973614	0.0827264
	0.970232	0.0918283
	0.964769	0.1
	0.987777	-4.0026e-018
	0.983673	0.0112462
	0.981912	0.0224037
	0.980629	0.0332172
	0.979418	0.0437011
	0.97815	0.0538733
	0.976912	0.0637117
	0.975933	0.0733031
	0.974628	0.0827877
	0.971372	0.0918589
	0.966103	0.1
	0.98837	1.51313e-017
	0.984324	0.0113678
	0.982624	0.0225522
	0.98139	0.0333655
	0.980226	0.04384
	0.979003	0.0539983
	0.97782	0.0638167
	0.97689	0.0733818
	0.975646	0.082838
	0.972515	0.0918858
	0.967443	0.1
	0.988947	2.61887e-017
	0.98497	0.0114837
	0.983331	0.022687
	0.982151	0.0334947
	0.981031	0.0439579
	0.979858	0.0541012
	0.978728	0.0639019
	0.977851	0.0734439
	0.976665	0.0828776
	0.973664	0.0919055
	0.968787	0.1
	0.989512	-4.03411e-018
	0.985609	0.0115933
	0.984038	0.0228075
	0.982909	0.0336054
	0.981838	0.0440545
	0.980713	0.054183
	0.979638	0.0639668
	0.978811	0.0734903
	0.977688	0.0829066
	0.974814	0.091922
	0.970136	0.1
	0.990063	-2.49593e-017
	0.986246	0.0116963
	0.984741	0.0229139
	0.983667	0.0336972
	0.982643	0.0441307
	0.981568	0.0542435
	0.980548	0.0640127
	0.979774	0.073521
	0.978711	0.0829256
	0.975968	0.0919316
	0.971486	0.1
	0.990603	-2.53419e-017
	0.986877	0.0117927
	0.985444	0.0230061
	0.984424	0.0337713
	0.983448	0.0441866
	0.982423	0.0542839
	0.98146	0.0640394
	0.980735	0.0735371
	0.979735	0.0829348
	0.977122	0.0919382
	0.972839	0.1
	0.99113	-1.43307e-017
	0.987507	0.011882
	0.986144	0.0230846
	0.98518	0.0338277
	0.984252	0.0442234
	0.983279	0.0543044
	0.98237	0.0640483
	0.981697	0.0735388
	0.980757	0.0829348
	0.978277	0.0919385
	0.974193	0.1
	0.991649	3.15782e-017
	0.988133	0.0119645
	0.986844	0.0231496
	0.985935	0.0338676
	0.985057	0.0442417
	0.984134	0.0543067
	0.983281	0.0640399
	0.982657	0.0735274
	0.981778	0.0829261
	0.979431	0.0919362
	0.975548	0.1
	0.992156	5.53685e-017
	0.988758	0.0120399
	0.987543	0.0232021
	0.986691	0.0338916
	0.985861	0.0442431
	0.984989	0.0542913
	0.98419	0.064016
	0.983616	0.0735035
	0.982797	0.0829094
	0.980584	0.0919283
	0.976901	0.1
	0.992655	1.26836e-017
	0.989381	0.0121088
	0.988242	0.0232425
	0.987446	0.0339013
	0.986665	0.0442283
	0.985843	0.05426
	0.985099	0.0639771
	0.984571	0.0734685
	0.983813	0.0828853
	0.981734	0.0919181
	0.978255	0.1
	0.993146	-4.52843e-017
	0.990004	0.0121714
	0.98894	0.0232723
	0.988201	0.0338977
	0.987468	0.0441994
	0.986697	0.054214
	0.986006	0.0639251
	0.985525	0.0734231
	0.984825	0.0828546
	0.982882	0.0919032
	0.979605	0.1
	0.993629	-6.85537e-017
	0.990627	0.0122285
	0.989639	0.0232923
	0.988955	0.0338828
	0.988272	0.0441579
	0.98755	0.0541554
	0.986911	0.0638613
	0.986474	0.0733691
	0.985834	0.0828181
	0.984025	0.0918864
	0.980954	0.1
	0.994104	-2.12322e-017
	0.991249	0.0122808
	0.990338	0.0233042
	0.98971	0.0338582
	0.989075	0.0441063
	0.988403	0.0540861
	0.987814	0.0637879
	0.987421	0.0733075
	0.986837	0.0827767
	0.985165	0.091866
	0.982299	0.1
	0.994572	7.12438e-017
	0.991872	0.0123293
	0.991038	0.0233091
	0.990466	0.033826
	0.989878	0.0440465
	0.989255	0.0540086
	0.988715	0.0637065
	0.988363	0.0732401
	0.987836	0.0827312
	0.9863	0.0918442
	0.983641	0.1
	0.995034	8.66559e-017
	0.992495	0.0123746
	0.991738	0.0233086
	0.991221	0.033788
	0.990681	0.0439814
	0.990107	0.0539255
	0.989614	0.0636198
	0.989301	0.0731682
	0.98883	0.0826825
	0.98743	0.0918198
	0.984979	0.1
	0.99549	-3.74506e-018
	0.99312	0.0124177
	0.992439	0.0233036
	0.991977	0.0337461
	0.991485	0.0439134
	0.990958	0.0538397
	0.990511	0.06353
	0.990235	0.0730935
	0.989818	0.0826314
	0.988554	0.0917943
	0.986311	0.1
	0.99594	-7.59551e-017
	0.993746	0.0124591
	0.99314	0.0232951
	0.992733	0.0337019
	0.992288	0.0438449
	0.991809	0.0537537
	0.991406	0.0634394
	0.991165	0.0730173
	0.990801	0.0825785
	0.989672	0.091767
	0.987639	0.1
	0.996385	-6.43586e-017
	0.994374	0.0124992
	0.993844	0.0232835
	0.99349	0.0336565
	0.993091	0.0437779
	0.992659	0.0536701
	0.9923	0.0633499
	0.992091	0.0729404
	0.991779	0.0825239
	0.990785	0.0917386
	0.988961	0.1
	0.996823	-4.39424e-018
	0.995005	0.0125382
	0.994548	0.0232688
	0.994247	0.03361
	0.993895	0.0437138
	0.99351	0.0535907
	0.993193	0.063263
	0.993015	0.0728631
	0.992752	0.0824673
	0.991891	0.0917085
	0.990276	0.1
	0.997257	5.97894e-017
	0.99564	0.0125753
	0.995255	0.0232495
	0.995004	0.0335609
	0.994698	0.0436519
	0.994361	0.0535156
	0.994086	0.0631784
	0.993936	0.0727845
	0.993721	0.0824076
	0.992991	0.0916768
	0.991584	0.1
	0.997686	6.22319e-017
	0.996279	0.0126086
	0.995964	0.0232224
	0.995762	0.0335056
	0.995502	0.0435894
	0.995213	0.0534425
	0.994978	0.0630936
	0.994855	0.0727013
	0.994686	0.0823425
	0.994083	0.0916426
	0.992884	0.1
	0.998111	-6.45805e-018
	0.996923	0.0126354
	0.996676	0.0231823
	0.99652	0.033437
	0.996305	0.0435198
	0.996066	0.0533656
	0.995872	0.0630026
	0.995773	0.0726081
	0.995647	0.0822681
	0.995168	0.0916053
	0.994176	0.1
	0.998532	-4.48823e-017
	0.997573	0.0126522
	0.997392	0.0231207
	0.997278	0.0333448
	0.997109	0.0434336
	0.996921	0.0532748
	0.996768	0.0628962
	0.996692	0.0724953
	0.996604	0.0821787
	0.996244	0.0915642
	0.995458	0.1
	0.998949	-1.46745e-017
	0.998231	0.0126571
	0.998114	0.0230247
	0.998035	0.0332174
	0.997913	0.043319
	0.997777	0.053158
	0.997666	0.0627635
	0.997611	0.0723519
	0.997556	0.0820656
	0.997309	0.0915213
	0.99673	0.1
	0.99936	9.69169e-018
	0.998899	0.0126483
	0.998842	0.0228795
	0.99879	0.0330483
	0.998717	0.0431724
	0.998633	0.0530012
	0.998565	0.0626046
	0.998531	0.0721693
	0.998498	0.0819219
	0.99836	0.09148
	0.997992	0.1
	0.999756	3.47624e-018
	0.999571	0.0125965
	0.99956	0.0226856
	0.999531	0.0328746
	0.999507	0.0429885
	0.999474	0.0528266
	0.999447	0.062422
	0.999435	0.0719844
	0.999417	0.0817449
	0.999373	0.0914328
	0.999228	0.1
	1	0
	1	0.0125418
	1	0.0225422
	1	0.0327733
	1	0.042852
	1	0.0527154
	1	0.0622923
	1	0.0718755
	1	0.0816224
	1	0.0913925
	1	0.1
	1	2	13	12
	2	3	14	13
	3	4	15	14
	4	5	16	15
	5	6	17	16
	6	7	18	17
	7	8	19	18
	8	9	20	19
	9	10	21	20
	10	11	22	21
	12	13	24	23
	13	14	25	24
	14	15	26	25
	15	16	27	26
	16	17	28	27
	17	18	29	28
	18	19	30	29
	19	20	31	30
	20	21	32	31
	21	22	33	32
	23	24	35	34
	24	25	36	35
	25	26	37	36
	26	27	38	37
	27	28	39	38
	28	29	40	39
	29	30	41	40
	30	31	42	41
	31	32	43	42
	32	33	44	43
	34	35	46	45
	35	36	47	46
	36	37	48	47
	37	38	49	48
	38	39	50	49
	39	40	51	50
	40	41	52	51
	41	42	53	52
	42	43	54	53
	43	44	55	54
	45	46	57	56
	46	47	58	57
	47	48	59	58
	48	49	60	59
	49	50	61	60
	50	51	62	61
	51	52	63	62
	52	53	64	63
	53	54	65	64
	54	55	66	65
	56	57	68	67
	57	58	69	68
	58	59	70	69
	59	60	71	70
	60	61	72	71
	61	62	73	72
	62	63	74	73
	63	64	75	74
	64	65	76	75
	65	66	77	76
	67	68	79	78
	68	69	80	79
	69	70	81	80
	70	71	82	81
	71	72	83	82
	72	73	84	83
	73	74	85	84
	74	75	86	85
	75	76	87	86
	76	77	88	87
	78	79	90	89
	79	80	91	90
	80	81	92	91
	81	82	93	92
	82	83	94	93
	83	84	95	94
	84	85	96	95
	85	86	97	96
	86	87	98	97
	87	88	99	98
	89	90	101	100
	90	91	102	101
	91	92	103	102
	92	93	104	103
	93	94	105	104
	94	95	106	105
	95	96	107	106
	96	97	108	107
	97	98	109	108
	98	99	110	109
	100	101	112	111
	101	102	113	112
	102	103	114	113
	103	104	115	114
	104	105	116	115
	105	106	117	116
	106	107	118	117
	107	108	119	118
	108	109	120	119
	109	110	121	120
	111	112	123	122
	112	113	124	123
	113	114	125	124
	114	115	126	125
	115	116	127	126
	116	117	128	127
	117	118	129	128
	118	119	130	129
	119	120	131	130
	120	121	132	131
	122	123	134	133
	123	124	135	134
	124	125	136	135
	125	126	137	136
	126	127	138	137
	127	128	139	138
	128	129	140	139
	129	130	141	140
	130	131	142	141
	131	132	143	142
	133	134	145	144
	134	135	146	145
	135	136	147	146
	136	137	148	147
	137	138	149	148
	138	139	150	149
	139	140	151	150
	140	141	152	151
	141	142	153	152
	142	143	154	153
	144	145	156	155
	145	146	157	156
	146	147	158	157
	147	148	159	158
	148	149	160	159
	149	150	161	160
	150	151	162	161
	151	152	163	162
	152	153	164	163
	153	154	165	164
	155	156	167	166
	156	157	168	167
	157	158	169	168
	158	159	170	169
	159	160	171	170
	160	161	172	171
	161	162	173	172
	162	163	174	173
	163	164	175	174
	164	165	176	175
	166	167	178	177
	167	168	179	178
	168	169	180	179
	169	170	181	180
	170	171	182	181
	171	172	183	182
	172	173	184	183
	173	174	185	184
	174	175	186	185
	175	176	187	186
	177	178	189	188
	178	179	190	189
	179	180	191	190
	180	181	192	191
	181	182	193	192
	182	183	194	193
	183	184	195	194
	184	185	196	195
	185	186	197	196
	186	187	198	197
	188	189	200	199
	189	190	201	200
	190	191	202	201
	191	192	203	202
	192	193	204	203
	193	194	205	204
	194	195	206	205
	195	196	207	206
	196	197	208	207
	197	198	209	208
	199	200	211	210
	200	201	212	211
	201	202	213	212
	202	203	214	213
	203	204	215	214
	204	205	216	215
	205	206	217	216
	206	207	218	217
	207	208	219	218
	208	209	220	219
	210	211	222	221
	211	212	223	222
	212	213	224	223
	213	214	225	224
	214	215	226	225
	215	216	227	226
	216	217	228	227
	217	218	229	228
	218	219	230	229
	219	220	231	230
	221	222	233	232
	222	223	234	233
	223	224	235	234
	224	225	236	235
	225	226	237	236
	226	227	238	237
	227	228	239	238
	228	229	240	239
	229	230	241	240
	230	231	242	241
	232	233	244	243
	233	234	245	244
	234	235	246	245
	235	236	247	246
	236	237	248	247
	237	238	249	248
	238	239	250	249
	239	240	251	250
	240	241	252	251
	241	242	253	252
	243	244	255	254
	244	245	256	255
	245	246	257	256
	246	247	258	257
	247	248	259	258
	248	249	260	259
	249	250	261	260
	250	251	262	261
	251	252	263	262
	252	253	264	263
	254	255	266	265
	255	256	267	266
	256	257	268	267
	257	258	269	268
	258	259	270	269
	259	260	271	270
	260	261	272	271
	261	262	273	272
	262	263	274	273
	263	264	275	274
	265	266	277	276
	266	267	278	277
	267	268	279	278
	268	269	280	279
	269	270	281	280
	270	271	282	281
	271	272	283	282
	272	273	284	283
	273	274	285	284
	274	275	286	285
	276	277	288	287
	277	278	289	288
	278	279	290	289
	279	280	291	290
	280	281	292	291
	281	282	293	292
	282	283	294	293
	283	284	295	294
	284	285	296	295
	285	286	297	296
	287	288	299	298
	288	289	300	299
	289	290	301	300
	290	291	302	301
	291	292	303	302
	292	293	304	303
	293	294	305	304
	294	295	306	305
	295	296	307	306
	296	297	308	307
	298	299	310	309
	299	300	311	310
	300	301	312	311
	301	302	313	312
	302	303	314	313
	303	304	315	314
	304	305	316	315
	305	306	317	316
	306	307	318	317
	307	308	319	318
	309	310	321	320
	310	311	322	321
	311	312	323	322
	312	313	324	323
	313	314	325	324
	314	315	326	325
	315	316	327	326
	316	317	328	327
	317	318	329	328
	318	319	330	329
	320	321	332	331
	321	322	333	332
	322	323	334	333
	323	324	335	334
	324	325	336	335
	325	326	337	336
	326	327	338	337
	327	328	339	338
	328	329	340	339
	329	330	341	340
	331	332	343	342
	332	333	344	343
	333	334	345	344
	334	335	346	345
	335	336	347	346
	336	337	348	347
	337	338	349	348
	338	339	350	349
	339	340	351	350
	340	341	352	351
	342	343	354	353
	343	344	355	354
	344	345	356	355
	345	346	357	356
	346	347	358	357
	347	348	359	358
	348	349	360	359
	349	350	361	360
	350	351	362	361
	351	352	363	362
	353	354	365	364
	354	355	366	365
	355	356	367	366
	356	357	368	367
	357	358	369	368
	358	359	370	369
	359	360	371	370
	360	361	372	371
	361	362	373	372
	362	363	374	373
	364	365	376	375
	365	366	377	376
	366	367	378	377
	367	368	379	378
	368	369	380	379
	369	370	381	380
	370	371	382	381
	371	372	383	382
	372	373	384	383
	373	374	385	384
	375	376	387	386
	376	377	388	387
	377	378	389	388
	378	379	390	389
	379	380	391	390
	380	381	392	391
	381	382	393	392
	382	383	394	393
	383	384	395	394
	384	385	396	395
	386	387	398	397
	387	388	399	398
	388	389	400	399
	389	390	401	400
	390	391	402	401
	391	392	403	402
	392	393	404	403
	393	394	405	404
	394	395	406	405
	395	396	407	406
	397	398	409	408
	398	399	410	409
	399	400	411	410
	400	401	412	411
	401	402	413	412
	402	403	414	413
	403	404	415	414
	404	405	416	415
	405	406	417	416
	406	407	418	417
	408	409	420	419
	409	410	421	420
	410	411	422	421
	411	412	423	422
	412	413	424	423
	413	414	425	424
	414	415	426	425
	415	416	427	426
	416	417	428	427
	417	418	429	428
	419	420	431	430
	420	421	432	431
	421	422	433	432
	422	423	434	433
	423	424	435	434
	424	425	436	435
	425	426	437	436
	426	427	438	437
	427	428	439	438
	428	429	440	439
	430	431	442	441
	431	432	443	442
	432	433	444	443
	433	434	445	444
	434	435	446	445
	435	436	447	446
	436	437	448	447
	437	438	449	448
	438	439	450	449
	439	440	451	450
	441	442	453	452
	442	443	454	453
	443	444	455	454
	444	445	456	455
	445	446	457	456
	446	447	458	457
	447	448	459	458
	448	449	460	459
	449	450	461	460
	450	451	462	461
	452	453	464	463
	453	454	465	464
	454	455	466	465
	455	456	467	466
	456	457	468	467
	457	458	469	468
	458	459	470	469
	459	460	471	470
	460	461	472	471
	461	462	473	472
	463	464	475	474
	464	465	476	475
	465	466	477	476
	466	467	478	477
	467	468	479	478
	468	469	480	479
	469	470	481	480
	470	471	482	481
	471	472	483	482
	472	473	484	483
	474	475	486	485
	475	476	487	486
	476	477	488	487
	477	478	489	488
	478	479	490	489
	479	480	491	490
	480	481	492	491
	481	482	493	492
	482	483	494	493
	483	484	495	494
	485	486	497	496
	486	487	498	497
	487	488	499	498
	488	489	500	499
	489	490	501	500
	490	491	502	501
	491	492	503	502
	492	493	504	503
	493	494	505	504
	494	495	506	505
	496	497	508	507
	497	498	509	508
	498	499	510	509
	499	500	511	510
	500	501	512	511
	501	502	513	512
	502	503	514	513
	503	504	515	514
	504	505	516	515
	505	506	517	516
	507	508	519	518
	508	509	520	519
	509	510	521	520
	510	511	522	521
	511	512	523	522
	512	513	524	523
	513	514	525	524
	514	515	526	525
	515	516	527	526
	516	517	528	527
	518	519	530	529
	519	520	531	530
	520	521	532	531
	521	522	533	532
	522	523	534	533
	523	524	535	534
	524	525	536	535
	525	526	537	536
	526	527	538	537
	527	528	539	538
	529	530	541	540
	530	531	542	541
	531	532	543	542
	532	533	544	543
	533	534	545	544
	534	535	546	545
	535	536	547	546
	536	537	548	547
	537	538	549	548
	538	539	550	549
	540	541	552	551
	541	542	553	552
	542	543	554	553
	543	544	555	554
	544	545	556	555
	545	546	557	556
	546	547	558	557
	547	548	559	558
	548	549	560	559
	549	550	561	560
	551	552	563	562
	552	553	564	563
	553	554	565	564
	554	555	566	565