VARIABLES=X, Y, density
ZONE I = 1000, J = 891, F=FEPOINT, ET=QUADRILATERAL
	0.930004	3.59647e-017	19.6765
	0.930004	0.0087564	19.5546
	0.930004	0.0187772	19.5046
	0.930004	0.0290861	19.4845
	0.930004	0.0392919	19.5373
	0.930004	0.0492215	19.7309
	0.930004	0.0587478	20.0483
	0.930004	0.0677938	20.3575
	0.930004	0.0766103	20.4925
	0.930004	0.0858534	20.4709
	0.930839	3.06389e-017	18.7399
	0.930676	0.00876207	18.5637
	0.930625	0.0187919	18.4413
	0.930612	0.0291036	18.3422
	0.930608	0.0393023	18.3076
	0.930609	0.0492353	18.4046
	0.930614	0.0587524	18.6089
	0.930618	0.0678061	18.7917
	0.930594	0.0765955	18.7864
	0.930519	0.0858492	18.7623
	0.931713	-7.96103e-018	19.5732
	0.931379	0.00879532	19.4542
	0.93128	0.0188492	19.3355
	0.931257	0.0291574	19.2523
	0.931251	0.0393459	19.2396
	0.931256	0.0492772	19.3649
	0.93127	0.0587952	19.6029
	0.931278	0.067861	19.8025
	0.931241	0.076629	19.8098
	0.931076	0.085883	20.0665
	0.932546	-4.84377e-017	20.0599
	0.932046	0.00885346	19.9499
	0.931904	0.0189428	19.8167
	0.931872	0.0292411	19.7357
	0.931863	0.0394188	19.7331
	0.931871	0.0493451	19.8725
	0.931892	0.0588808	20.1284
	0.931904	0.0679599	20.3259
	0.931857	0.0767247	20.3347
	0.931601	0.0859433	20.7324
	0.933352	-5.53515e-017	20.2266
	0.93269	0.00891869	20.1038
	0.932512	0.0190435	19.9418
	0.932473	0.0293353	19.856
	0.932461	0.0394988	19.8572
	0.93247	0.0494243	20.0056
	0.932497	0.0589754	20.2737
	0.932513	0.0680641	20.4644
	0.932458	0.0768013	20.4418
	0.932117	0.0859571	20.8722
	0.934144	-4.61314e-017	20.2755
	0.933324	0.00898167	20.1315
	0.933115	0.0191372	19.9398
	0.933071	0.0294219	19.8462
	0.933055	0.039572	19.8482
	0.933064	0.049497	20.0031
	0.933095	0.0590614	20.2804
	0.933119	0.0681474	20.4591
	0.933061	0.0768341	20.3898
	0.932638	0.0859201	20.82
	0.934926	-6.77081e-018	20.2979
	0.933953	0.00903985	20.1318
	0.933718	0.0192162	19.9107
	0.933669	0.0294915	19.8071
	0.933649	0.0396288	19.807
	0.933658	0.0495533	19.9655
	0.933692	0.0591277	20.25
	0.933726	0.0682003	20.4111
	0.93367	0.0768246	20.2858
	0.933166	0.0858497	20.7126
	0.9357	3.33735e-017	20.3199
	0.934577	0.00909182	20.1306
	0.934322	0.0192783	19.8842
	0.934269	0.0295399	19.771
	0.934245	0.0396644	19.7671
	0.934252	0.0495879	19.9283
	0.934289	0.0591692	20.2181
	0.934337	0.0682202	20.3559
	0.934288	0.076781	20.1706
	0.933702	0.0857618	20.5967
	0.936465	5.55258e-017	20.3466
	0.9352	0.00913714	20.1336
	0.934926	0.0193228	19.8647
	0.934871	0.029566	19.7422
	0.934842	0.039677	19.733
	0.934846	0.0495985	19.8952
	0.934886	0.059183	20.1884
	0.934951	0.0682072	20.2997
	0.934913	0.0767101	20.0538
	0.934244	0.0856663	20.4848
	0.937222	5.61699e-017	20.3792
	0.93582	0.00917548	20.1415
	0.935531	0.0193502	19.853
	0.935473	0.0295701	19.7217
	0.93544	0.039666	19.7054
	0.93544	0.0495841	19.8667
	0.935484	0.0591677	20.1606
	0.935569	0.0681625	20.2423
	0.935546	0.0766174	19.9365
	0.934791	0.0855698	20.3768
	0.93797	2.80797e-017	20.4172
	0.936439	0.00920679	20.1543
	0.936137	0.0193611	19.8487
	0.936076	0.0295532	19.7086
	0.936038	0.0396317	19.6839
	0.936035	0.0495443	19.8421
	0.936082	0.0591231	20.1338
	0.936191	0.068088	20.1841
	0.936184	0.0765074	19.8198
	0.935341	0.0854777	20.273
	0.938711	-5.81513e-018	20.4597
	0.937057	0.00923093	20.1717
	0.936744	0.0193563	19.851
	0.93668	0.029516	19.7022
	0.936637	0.0395747	19.6678
	0.936629	0.049479	19.8203
	0.936681	0.0590491	20.1068
	0.936815	0.0679858	20.1248
	0.936825	0.0763841	19.7043
	0.935892	0.0853943	20.1741
	0.939443	-3.62506e-017	20.5049
	0.937675	0.00924778	20.1928
	0.937353	0.0193361	19.859
	0.937285	0.0294591	19.7014
	0.937237	0.039495	19.6561
	0.937223	0.0493878	19.8007
	0.93728	0.058946	20.0792
	0.937441	0.0678582	20.0645
	0.937469	0.0762512	19.5903
	0.936443	0.0853236	20.0801
	0.940168	-4.86115e-017	20.5513
	0.938293	0.00925718	20.2165
	0.937962	0.019301	19.8714
	0.93789	0.029383	19.705
	0.937836	0.0393926	19.648
	0.937817	0.0492704	19.7824
	0.93788	0.0588142	20.0506
	0.938068	0.0677077	20.0032
	0.938114	0.0761123	19.4782
	0.93699	0.0852688	19.9917
	0.940886	-3.99075e-017	20.5974
	0.938911	0.00925898	20.2421
	0.938573	0.019251	19.8875
	0.938496	0.0292878	19.7122
	0.938436	0.0392676	19.6426
	0.938412	0.0491267	19.7647
	0.93848	0.0586549	20.0204
	0.938695	0.0675368	19.9407
	0.938757	0.0759706	19.3685
	0.937532	0.0852325	19.9092
	0.941597	-1.85587e-017	20.6417
	0.939531	0.00925304	20.2686
	0.939185	0.0191866	19.9063
	0.939102	0.0291737	19.7221
	0.939036	0.0391198	19.6393
	0.939007	0.0489566	19.7475
	0.93908	0.0584692	19.9887
	0.939321	0.0673485	19.8769
	0.939398	0.0758291	19.2614
	0.938067	0.0852166	19.833
	0.942303	9.1762e-018	20.683
	0.940153	0.00923934	20.2952
	0.939798	0.0191079	19.9269
	0.93971	0.029041	19.7338
	0.939637	0.0389494	19.6376
	0.939602	0.0487607	19.7304
	0.93968	0.058259	19.9555
	0.939945	0.0671458	19.8118
	0.940035	0.075691	19.1575
	0.938593	0.0852223	19.7634
	0.943004	2.85757e-017	20.7202
	0.940777	0.0092179	20.3215
	0.940413	0.0190154	19.9489
	0.940318	0.0288902	19.7471
	0.940239	0.0387569	19.6371
	0.940198	0.0485401	19.7135
	0.94028	0.0580266	19.9208
	0.940566	0.0669316	19.7453
	0.940666	0.075559	19.0575
	0.939109	0.0852505	19.701
	0.9437	3.56115e-017	20.7524
	0.941403	0.00918888	20.3468
	0.94103	0.0189098	19.9717
	0.940927	0.028722	19.7614
	0.940841	0.0385434	19.6379
	0.940794	0.0482964	19.6971
	0.940878	0.0577746	19.8851
	0.941183	0.0667093	19.6775
	0.94129	0.0754358	18.9619
	0.939613	0.0853011	19.646
	0.944393	2.77136e-017	20.7788
	0.942032	0.00915253	20.3706
	0.941649	0.018792	19.9948
	0.941537	0.0285376	19.7765
	0.941444	0.0383101	19.6398
	0.94139	0.0480317	19.6814
	0.941475	0.057506	19.8485
	0.941795	0.0664821	19.6087
	0.941907	0.0753242	18.8713
	0.940104	0.0853738	19.5987
	0.945084	1.04191e-017	20.7986
	0.942665	0.00910924	20.3924
	0.94227	0.0186629	20.0177
	0.942148	0.0283384	19.7921
	0.942048	0.0380592	19.6429
	0.941987	0.0477487	19.6669
	0.94207	0.0572241	19.8114
	0.942402	0.0662533	19.5391
	0.942515	0.0752267	18.7865
	0.940582	0.0854679	19.5596
	0.945772	-7.24943e-018	20.8114
	0.943301	0.00905951	20.412
	0.942893	0.018524	20.04
	0.942761	0.0281262	19.8078
	0.942652	0.037793	19.6473
	0.942584	0.0474508	19.6537
	0.942662	0.0569325	19.7741
	0.943003	0.0660259	19.4691
	0.943113	0.0751455	18.7081
	0.941045	0.0855823	19.5289
	0.946459	-1.93576e-017	20.8169
	0.943941	0.00900395	20.4289
	0.943519	0.0183765	20.0613
	0.943376	0.0279033	19.8236
	0.943258	0.0375145	19.6529
	0.943181	0.0471413	19.6423
	0.943251	0.0566348	19.7368
	0.943596	0.0658032	19.399
	0.943701	0.0750828	18.6365
	0.941495	0.0857157	19.5068
	0.947146	-2.13559e-017	20.8148
	0.944585	0.00894331	20.4432
	0.944148	0.0182222	20.0814
	0.943992	0.027672	19.8392
	0.943865	0.037227	19.6599
	0.943777	0.0468244	19.6329
	0.943837	0.0563346	19.6996
	0.944183	0.065588	19.329
	0.944278	0.0750403	18.572
	0.941931	0.0858666	19.4935
	0.947833	-1.54881e-017	20.8051
	0.945234	0.0088784	20.4546
	0.94478	0.0180629	20.0999
	0.94461	0.0274351	19.8546
	0.944472	0.0369342	19.6684
	0.944373	0.0465039	19.6257
	0.94442	0.0560358	19.663
	0.944762	0.0653832	19.2597
	0.944844	0.0750196	18.5149
	0.942353	0.0860335	19.4891
	0.94852	-4.98326e-018	20.788
	0.945886	0.00881011	20.4633
	0.945414	0.0179003	20.1167
	0.94523	0.0271954	19.8694
	0.94508	0.0366398	19.6783
	0.944968	0.0461843	19.6209
	0.944999	0.0557419	19.6269
	0.945334	0.0651913	19.1913
	0.945398	0.0750217	18.4652
	0.942763	0.0862147	19.4936
	0.949209	5.08765e-018	20.7637
	0.946543	0.00873939	20.4694
	0.946051	0.0177364	20.1316
	0.945851	0.0269559	19.8837
	0.945688	0.0363477	19.6896
	0.945562	0.0458696	19.6186
	0.945573	0.0554566	19.5917
	0.945897	0.0650147	19.1242
	0.94594	0.0750474	18.423
	0.94316	0.0864086	19.5072
	0.949899	1.08307e-017	20.7326
	0.947204	0.00866722	20.4729
	0.946691	0.0175731	20.1444
	0.946473	0.0267197	19.8971
	0.946297	0.0360618	19.7023
	0.946154	0.045564	19.6188
	0.946144	0.0551834	19.5575
	0.946453	0.0648556	19.0588
	0.94647	0.0750971	18.388
	0.943545	0.0866135	19.5297
	0.950592	1.0959e-017	20.6954
	0.947869	0.00859458	20.4741
	0.947334	0.0174123	20.1548
	0.947097	0.0264896	19.9097
	0.946905	0.0357858	19.7162
	0.946744	0.0452715	19.6213
	0.94671	0.0549256	19.5243
	0.947	0.0647159	18.9954
	0.946989	0.0751708	18.3599
	0.94392	0.0868277	19.5611
	0.951286	6.6621e-018	20.6528
	0.948537	0.00852242	20.4731
	0.947979	0.0172559	20.1627
	0.947721	0.0262685	19.9211
	0.947512	0.0355232	19.7312
	0.947332	0.0449957	19.6261
	0.947271	0.0546861	19.4923
	0.94754	0.0645975	18.9342
	0.947495	0.0752681	18.3384
	0.944285	0.0870497	19.6013
	0.951983	9.78505e-019	20.6057
	0.949209	0.00845164	20.4701
	0.948625	0.0171055	20.1679
	0.948346	0.0260589	19.9312
	0.948119	0.0352774	19.7469
	0.947917	0.04474	19.6329
	0.947828	0.0544678	19.4615
	0.948072	0.0645018	18.8756
	0.947989	0.0753884	18.3231
	0.944642	0.0872779	19.6503
	0.952682	-3.49051e-018	20.5553
	0.949884	0.00838306	20.4649
	0.949273	0.0169627	20.1701
	0.94897	0.0258635	19.94
	0.948723	0.0350512	19.7631
	0.9485	0.0445074	19.6414
	0.94838	0.0542733	19.432
	0.948596	0.0644301	18.8195
	0.948471	0.0755307	18.3134
	0.944992	0.0875108	19.7077
	0.953383	-5.42415e-018	20.5028
	0.950561	0.00831736	20.4574
	0.949922	0.0168291	20.169
	0.949594	0.0256842	19.9471
	0.949326	0.0348472	19.7794
	0.949079	0.0443007	19.6511
	0.948928	0.0541047	19.4037
	0.949113	0.0643835	18.7662
	0.948942	0.0756938	18.3087
	0.945335	0.0877469	19.7736
	0.954086	-4.73086e-018	20.4499
	0.95124	0.00825512	20.447
	0.950571	0.0167059	20.1643
	0.950217	0.0255232	19.9527
	0.949926	0.0346676	19.7955
	0.949655	0.0441219	19.6617
	0.94947	0.0539639	19.3767
	0.949622	0.0643628	18.7155
	0.949403	0.0758762	18.3086
	0.945674	0.0879849	19.8476
	0.954791	-2.48171e-018	20.3982
	0.95192	0.00819674	20.4331
	0.951219	0.0165942	20.1554
	0.950837	0.0253819	19.9564
	0.950523	0.0345142	19.811
	0.950227	0.0439731	19.6727
	0.950007	0.0538525	19.351
	0.950124	0.0643686	18.6673
	0.949853	0.0760763	18.3124
	0.946009	0.0882234	19.9294
	0.955497	-2.75939e-019	20.3495
	0.952601	0.00814243	20.414
	0.951866	0.0164949	20.142
	0.951455	0.0252619	19.9581
	0.951117	0.0343885	19.8254
	0.950794	0.0438554	19.6836
	0.95054	0.0537715	19.3266
	0.950619	0.064401	18.6214
	0.950293	0.0762923	18.3196
	0.946342	0.0884611	20.0187
	0.956204	1.39668e-018	20.3052
	0.953281	0.00809225	20.3875
	0.952511	0.0164091	20.1232
	0.95207	0.0251644	19.9575
	0.951706	0.0342917	19.838
	0.951357	0.0437702	19.6938
	0.951067	0.053722	19.3034
	0.951108	0.0644599	18.5773
	0.950723	0.0765221	18.3298
	0.946673	0.0886968	20.1151
	0.956912	2.35071e-018	20.2657
	0.953961	0.00804603	20.3499
	0.953154	0.0163373	20.0977
	0.95268	0.0250901	19.9538
	0.952291	0.0342244	19.848
	0.951915	0.0437179	19.703
	0.951589	0.0537043	19.2816
	0.951589	0.0645451	18.5346
	0.951146	0.0767637	18.3425
	0.947005	0.0889293	20.2183
	0.957619	2.35082e-018	20.2289
	0.95464	0.00800348	20.295
	0.953793	0.0162802	20.0631
	0.953286	0.0250398	19.9455
	0.952871	0.0341873	19.8543
	0.952468	0.0436991	19.7104
	0.952106	0.0537186	19.2609
	0.952065	0.0646557	18.4929
	0.951561	0.0770149	18.3571
	0.947338	0.0891576	20.3275
	0.958326	1.59196e-018	20.1867
	0.955317	0.00796419	20.2121
	0.954427	0.0162386	20.0139
	0.953887	0.0250141	19.9295
	0.953446	0.0341805	19.855
	0.953016	0.0437137	19.7153
	0.952618	0.0537648	19.2413
	0.952534	0.0647907	18.4513
	0.951969	0.0772736	18.3733
	0.947674	0.0893805	20.4423
	0.959032	3.8396e-020	20.1185
	0.955992	0.00792784	20.0818
	0.955057	0.0162132	19.9393
	0.954483	0.0250133	19.8993
	0.954015	0.034204	19.8464
	0.953558	0.0437617	19.7161
	0.953124	0.0538424	19.2221
	0.952998	0.064949	18.4091
	0.952372	0.0775376	18.3907
	0.948014	0.0895972	20.5619
	0.959737	-1.58704e-018	19.9802
	0.956666	0.00789441	19.8696
	0.955683	0.0162049	19.8171
	0.955073	0.0250376	19.8418
	0.954578	0.0342579	19.8221
	0.954094	0.0438427	19.7103
	0.953626	0.0539508	19.2023
	0.953457	0.0651288	18.3654
	0.95277	0.0778047	18.4087
	0.948358	0.0898067	20.6857
	0.960445	-2.23894e-018	19.6892
	0.95734	0.00786476	19.5157
	0.956304	0.0162149	19.605
	0.955658	0.0250874	19.7323
	0.955136	0.0343418	19.7695
	0.954625	0.0439561	19.6925
	0.954123	0.0540889	19.1798
	0.95391	0.0653286	18.3189
	0.953165	0.0780729	18.427
	0.948709	0.0900082	20.8125
	0.96116	-1.31642e-018	19.1172
	0.958018	0.00784129	18.9283
	0.956925	0.0162452	19.2302
	0.956239	0.0251632	19.5258
	0.955689	0.0344555	19.6654
	0.955151	0.0441014	19.6526
	0.954615	0.0542558	19.1505
	0.954359	0.0655463	18.2676
	0.953557	0.0783399	18.4447
	0.949066	0.0902009	20.9416
	0.961892	4.5467e-019	18.1302
	0.958708	0.00782866	18.0011
	0.95755	0.0162981	18.5889
	0.95682	0.0252659	19.1486
	0.956238	0.0345991	19.469
	0.955673	0.0442778	19.5715
	0.955103	0.0544502	19.1066
	0.954804	0.06578	18.2083
	0.953948	0.0786039	18.4607
	0.949431	0.090384	21.0715
	0.962657	1.88971e-018	16.7078
	0.959422	0.00783336	16.6882
	0.958191	0.0163768	17.5851
	0.957407	0.0253972	18.5043
	0.956788	0.034773	19.1164
	0.956192	0.0444849	19.4163
	0.955588	0.0546711	19.0344
	0.955247	0.0660275	18.1356
	0.954339	0.0788629	18.4732
	0.949804	0.0905569	21.2007
	0.963477	1.39605e-018	15.0611
	0.960179	0.0078613	15.1144
	0.958862	0.0164834	16.2264
	0.95801	0.025559	17.5186
	0.957343	0.034978	18.5277
	0.95671	0.0447225	19.1364
	0.956071	0.0549175	18.9105
	0.955687	0.066287	18.04
	0.954731	0.079115	18.4787
	0.950187	0.0907189	21.3271
	0.964373	-1.00348e-018	13.5512
	0.961	0.00791362	13.5723
	0.959584	0.0166176	14.7004
	0.958644	0.0257524	16.2273
	0.957912	0.0352154	17.6474
	0.957234	0.044991	18.6694
	0.956554	0.0551891	18.6999
	0.956126	0.0665565	17.9059
	0.955125	0.0793584	18.4714
	0.950579	0.0908693	21.4476
	0.965349	-1.85214e-018	12.4338
	0.961894	0.00798508	12.3375
	0.960372	0.0167747	13.295
	0.959327	0.025976	14.8185
	0.95851	0.0354859	16.5114
	0.957768	0.045291	17.9691
	0.95704	0.0554861	18.3579
	0.956567	0.0668344	17.7096
	0.955522	0.0795913	18.4414
	0.950982	0.0910074	21.5577
	0.966387	7.73546e-019	11.7324
	0.962852	0.00806759	11.4998
	0.961227	0.0169474	12.2081
	0.960068	0.0262245	13.5346
	0.959147	0.0357876	15.27
	0.958324	0.0456225	17.0514
	0.957535	0.0558092	17.8469
	0.957011	0.0671194	17.4202
	0.955926	0.0798116	18.3728
	0.951396	0.0911328	21.6502
	0.967461	1.23169e-018	11.3346
	0.96385	0.00815574	10.9913
	0.962134	0.0171294	11.4679
	0.960867	0.0264906	12.523
	0.959833	0.0361154	14.108
	0.95891	0.0459833	16.0116
	0.958046	0.056159	17.1629
	0.957465	0.0674107	17.0095
	0.956338	0.0800175	18.2435
	0.951823	0.0912445	21.714
	0.968546	-3.52238e-019	11.1194
	0.964866	0.00824781	10.7007
	0.963072	0.0173182	11.0007
	0.961711	0.0267681	11.7999
	0.960567	0.0364619	13.1428
	0.959534	0.0463683	14.9791
	0.95858	0.056534	16.3531
	0.957931	0.0677078	16.4702
	0.956763	0.0802068	18.0275
	0.952263	0.091342	21.7326
	0.969626	-3.70146e-019	11.004
	0.965881	0.00834407	10.5379
	0.964022	0.0175138	10.7154
	0.962583	0.0270542	11.3095
	0.961341	0.0368204	12.4004
	0.960197	0.0467704	14.0536
	0.959143	0.0569299	15.4994
	0.958419	0.0680105	15.832
	0.957203	0.0803774	17.7052
	0.952718	0.0914244	21.6842
	0.970691	2.12554e-020	10.9413
	0.966885	0.00844503	10.4463
	0.964971	0.0177169	10.5415
	0.963469	0.027348	10.9827
	0.962143	0.0371867	11.852
	0.960896	0.0471822	13.2797
	0.959739	0.0573405	14.6834
	0.958932	0.0683185	15.1556
	0.957665	0.0805284	17.2742
	0.953191	0.0914907	21.5432
	0.971736	3.78555e-019	10.9062
	0.967872	0.00855108	10.3937
	0.965911	0.0179278	10.4333
	0.964358	0.0276492	10.7632
	0.962964	0.0375582	11.4521
	0.961626	0.0475985	12.6591
	0.96037	0.0577587	13.9593
	0.959476	0.0686312	14.5061
	0.958153	0.0806604	16.7566
	0.953684	0.0915397	21.2849
	0.972759	-4.85899e-020	10.8859
	0.96884	0.00866224	10.3625
	0.966838	0.0181464	10.3637
	0.965245	0.0279573	10.612
	0.963796	0.0379335	11.1587
	0.96238	0.0480155	12.1702
	0.961033	0.0581791	13.3467
	0.960054	0.0689472	13.9258
	0.958669	0.080776	16.1889
	0.9542	0.0915705	20.8915
	0.973759	-7.00442e-019	10.8738
	0.969787	0.00877852	10.3435
	0.967749	0.0183722	10.3167
	0.966124	0.0282716	10.5041
	0.964632	0.0383113	10.9387
	0.963152	0.0484309	11.784
	0.961724	0.0585971	12.8367
	0.960664	0.0692646	13.4259
	0.959217	0.0808792	15.6057
	0.954745	0.0915823	20.3538
	0.974734	7.23615e-019	10.8666
	0.970711	0.00889962	10.3317
	0.968645	0.0186044	10.2838
	0.966994	0.0285906	10.4238
	0.965469	0.0386902	10.7689
	0.963938	0.0488426	11.4726
	0.962441	0.0590096	12.4066
	0.961305	0.0695813	12.9926
	0.959797	0.0809742	15.0245
	0.95532	0.0915757	19.6668
	0.975684	2.63674e-019	10.8624
	0.971615	0.00902532	10.3244
	0.969523	0.0188421	10.2597
	0.967856	0.0289132	10.362
	0.966306	0.0390686	10.6333
	0.964734	0.0492489	11.2141
	0.963181	0.059414	12.0311
	0.961978	0.0698951	12.6
	0.960409	0.0810647	14.4419
	0.955928	0.0915516	18.8198
	0.97661	-2.60544e-018	10.8602
	0.972497	0.00915509	10.32
	0.970386	0.0190842	10.2418
	0.968707	0.0292375	10.3131
	0.967141	0.0394445	10.5224
	0.96554	0.0496481	10.994
	0.963942	0.059808	11.6915
	0.96268	0.070204	12.2205
	0.961055	0.0811545	13.8361
	0.956573	0.0915129	17.783
	0.977511	3.63426e-019	10.8594
	0.973358	0.00928867	10.3178
	0.971233	0.0193294	10.2285
	0.969549	0.0295619	10.2741
	0.967974	0.0398164	10.4309
	0.966353	0.0500383	10.8047
	0.964723	0.0601896	11.378
	0.963413	0.070506	11.8349
	0.961736	0.0812472	13.1799
	0.957258	0.0914638	16.5133
	0.978387	2.92281e-018	10.8597
	0.974198	0.00942538	10.3172
	0.972066	0.0195767	10.2188
	0.970381	0.0298847	10.2432
	0.968805	0.0401821	10.3561
	0.967173	0.0504182	10.6434
	0.965523	0.0605569	11.0915
	0.964177	0.0707991	11.4394
	0.962457	0.0813469	12.4591
	0.957989	0.0914128	15.009
	0.979239	-2.43817e-018	10.8609
	0.97502	0.00956497	10.3181
	0.972884	0.0198246	10.2123
	0.971206	0.0302041	10.2197
	0.969633	0.0405401	10.2964
	0.968	0.0507859	10.5105
	0.966341	0.0609087	10.8395
	0.964972	0.0710812	11.0515
	0.963221	0.0814569	11.7047
	0.958774	0.091372	13.4088
	0.980068	-7.90036e-019	10.8627
	0.975821	0.00970664	10.3201
	0.973689	0.020072	10.2086
	0.972022	0.0305184	10.2025
	0.970459	0.0408884	10.2512
	0.968832	0.0511405	10.4061
	0.967176	0.0612438	10.6318
	0.965798	0.0713511	10.7033
	0.964032	0.0815787	11.0033
	0.95962	0.0913557	11.9845
	0.980873	5.33607e-018	10.865
	0.976606	0.00985017	10.3231
	0.974481	0.0203176	10.2072
	0.972831	0.0308258	10.1912
	0.971283	0.0412257	10.2189
	0.969669	0.0514803	10.3295
	0.968025	0.0615617	10.4739
	0.966653	0.071607	10.4272
	0.964888	0.0817113	10.4548
	0.960532	0.0913694	10.9525
	0.981655	-4.05982e-018	10.8677
	0.977373	0.00999467	10.327
	0.975262	0.02056	10.208
	0.973632	0.0311249	10.1848
	0.972105	0.0415501	10.1982
	0.970509	0.0518047	10.2778
	0.968887	0.0618618	10.365
	0.967532	0.0718486	10.2358
	0.965785	0.0818502	10.0946
	0.961504	0.0914097	10.328
	0.982415	-4.37029e-018	10.8705
	0.978124	0.0101399	10.3316
	0.976032	0.020798	10.2105
	0.974428	0.0314139	10.1827
	0.972924	0.0418605	10.1867
	0.971353	0.0521121	10.2464
	0.969758	0.0621442	10.2967
	0.96843	0.0720749	10.119
	0.966713	0.0819896	9.89178
	0.962525	0.0914648	9.99664
	0.983154	5.05586e-018	10.8735
	0.978859	0.0102849	10.3368
	0.976793	0.0210304	10.2144
	0.975217	0.0316917	10.1837
	0.973742	0.0421552	10.1824
	0.972198	0.0524022	10.2299
	0.970638	0.0624081	10.2581
	0.969342	0.072286	10.055
	0.967665	0.0821245	9.78905
	0.963579	0.0915268	9.83589
	0.983871	-2.1591e-018	10.8764
	0.979582	0.0104295	10.3424
	0.977544	0.0212559	10.2193
	0.976002	0.0319565	10.1871
	0.974557	0.0424335	10.183
	0.973045	0.0526735	10.2237
	0.971523	0.0626536	10.2385
	0.970265	0.0724809	10.0233
	0.968633	0.0822515	9.744
	0.964657	0.0915877	9.7632
	0.984568	2.36973e-020	10.8791
	0.98029	0.0105725	10.3483
	0.978288	0.0214734	10.225
	0.976781	0.0322075	10.192
	0.975371	0.0426938	10.1871
	0.973893	0.0529256	10.2237
	0.972413	0.0628798	10.2301
	0.971196	0.0726598	10.0095
	0.969614	0.0823685	9.72669
	0.965751	0.0916466	9.73326
	0.985245	1.04793e-017	10.8814
	0.980987	0.0107138	10.3542
	0.979023	0.0216817	10.231
	0.977558	0.0324432	10.1981
	0.976182	0.0429356	10.1931
	0.974743	0.0531573	10.2275
	0.973307	0.0630866	10.2278
	0.972134	0.0728219	10.0051
	0.970603	0.0824749	9.72517
	0.966858	0.0916995	9.72301
	0.985905	-4.00843e-018	10.8831
	0.981672	0.0108523	10.3601
	0.979754	0.0218797	10.2372
	0.978329	0.0326629	10.2046
	0.976993	0.0431576	10.2003
	0.975593	0.0533686	10.2332
	0.974204	0.0632732	10.2289
	0.973077	0.0729676	10.0057
	0.971601	0.08257	9.72888
	0.967974	0.0917485	9.72196
	0.986545	-1.15464e-017	10.8841
	0.982348	0.0109878	10.3657
	0.980477	0.0220667	10.2434
	0.979099	0.0328655	10.2113
	0.977802	0.0433597	10.2081
	0.976445	0.0535583	10.24
	0.975104	0.0634399	10.2314
	0.974025	0.0730961	10.0086
	0.972604	0.0826539	9.73773
	0.969101	0.0917904	9.72461
	0.98717	-3.30389e-018	10.8843
	0.983014	0.0111192	10.3712
	0.981197	0.0222415	10.2494
	0.979864	0.0330506	10.2181
	0.978611	0.0435408	10.2161
	0.977297	0.0537269	10.2471
	0.976008	0.0635859	10.2348
	0.974977	0.0732081	10.013
	0.973614	0.0827264	9.74629
	0.970232	0.0918283	9.72934
	0.987777	-4.0026e-018	10.8834
	0.983673	0.0112462	10.3761
	0.981912	0.0224037	10.255
	0.980629	0.0332172	10.2245
	0.979418	0.0437011	10.224
	0.97815	0.0538733	10.2543
	0.976912	0.0637117	10.2386
	0.975933	0.0733031	10.0181
	0.974628	0.0827877	9.75785
	0.971372	0.0918589	9.73435
	0.98837	1.51313e-017	10.8811
	0.984324	0.0113678	10.3806
	0.982624	0.0225522	10.2601
	0.98139	0.0333655	10.2307
	0.980226	0.04384	10.2317
	0.979003	0.0539983	10.2614
	0.97782	0.0638167	10.2425
	0.97689	0.0733818	10.0241
	0.975646	0.082838	9.76778
	0.972515	0.0918858	9.74018
	0.988947	2.61887e-017	10.8771
	0.98497	0.0114837	10.3841
	0.983331	0.022687	10.2646
	0.982151	0.0334947	10.2363
	0.981031	0.0439579	10.239
	0.979858	0.0541012	10.2682
	0.978728	0.0639019	10.2465
	0.977851	0.0734439	10.0303
	0.976665	0.0828776	9.78045
	0.973664	0.0919055	9.74547
	0.989512	-4.03411e-018	10.8713
	0.985609	0.0115933	10.3866
	0.984038	0.0228075	10.2681
	0.982909	0.0336054	10.2412
	0.981838	0.0440545	10.2458
	0.980713	0.054183	10.2747
	0.979638	0.0639668	10.2505
	0.978811	0.0734903	10.0375
	0.977688	0.0829066	9.79112
	0.974814	0.091922	9.75149
	0.990063	-2.49593e-017	10.8644
	0.986246	0.0116963	10.3883
	0.984741	0.0229139	10.2705
	0.983667	0.0336972	10.245
	0.982643	0.0441307	10.2519
	0.981568	0.0542435	10.2805
	0.980548	0.0640127	10.2545
	0.979774	0.073521	10.0448
	0.978711	0.0829256	9.80452
	0.975968	0.0919316	9.75666
	0.990603	-2.53419e-017	10.8558
	0.986877	0.0117927	10.3895
	0.985444	0.0230061	10.2721
	0.984424	0.0337713	10.2479
	0.983448	0.0441866	10.2568
	0.982423	0.0542839	10.2858
	0.98146	0.0640394	10.2582
	0.980735	0.0735371	10.0531
	0.979735	0.0829348	9.81589
	0.977122	0.0919382	9.76271
	0.99113	-1.43307e-017	10.8455
	0.987507	0.011882	10.3898
	0.986144	0.0230846	10.2732
	0.98518	0.0338277	10.25
	0.984252	0.0442234	10.2609
	0.983279	0.0543044	10.2898
	0.98237	0.0640483	10.2617
	0.981697	0.0735388	10.0614
	0.980757	0.0829348	9.82988
	0.978277	0.0919385	9.76776
	0.991649	3.15782e-017	10.833
	0.988133	0.0119645	10.3894
	0.986844	0.0231496	10.2733
	0.985935	0.0338676	10.2515
	0.985057	0.0442417	10.2642
	0.984134	0.0543067	10.2934
	0.983281	0.0640399	10.2647
	0.982657	0.0735274	10.0705
	0.981778	0.0829261	9.84183
	0.979431	0.0919362	9.77382
	0.992156	5.53685e-017	10.8186
	0.988758	0.0120399	10.3878
	0.987543	0.0232021	10.2726
	0.986691	0.0338916	10.2519
	0.985861	0.0442431	10.2669
	0.984989	0.0542913	10.2964
	0.98419	0.064016	10.2681
	0.983616	0.0735035	10.0797
	0.982797	0.0829094	9.85572
	0.980584	0.0919283	9.77813
	0.992655	1.26836e-017	10.8017
	0.989381	0.0121088	10.3854
	0.988242	0.0232425	10.2707
	0.987446	0.0339013	10.2514
	0.986665	0.0442283	10.2684
	0.985843	0.05426	10.2989
	0.985099	0.0639771	10.2714
	0.984571	0.0734685	10.0905
	0.983813	0.0828853	9.86824
	0.981734	0.0919181	9.78369
	0.993146	-4.52843e-017	10.7822
	0.990004	0.0121714	10.3816
	0.98894	0.0232723	10.2679
	0.988201	0.0338977	10.2496
	0.987468	0.0441994	10.2688
	0.986697	0.054214	10.3003
	0.986006	0.0639251	10.2749
	0.985525	0.0734231	10.1017
	0.984825	0.0828546	9.88325
	0.982882	0.0919032	9.78905
	0.993629	-6.85537e-017	10.7599
	0.990627	0.0122285	10.3765
	0.989639	0.0232923	10.2638
	0.988955	0.0338828	10.2466
	0.988272	0.0441579	10.2677
	0.98755	0.0541554	10.3008
	0.986911	0.0638613	10.2779
	0.986474	0.0733691	10.1139
	0.985834	0.0828181	9.89713
	0.984025	0.0918864	9.79586
	0.994104	-2.12322e-017	10.7357
	0.991249	0.0122808	10.3705
	0.990338	0.0233042	10.2585
	0.98971	0.0338582	10.2418
	0.989075	0.0441063	10.2649
	0.988403	0.0540861	10.2998
	0.987814	0.0637879	10.2807
	0.987421	0.0733075	10.1262
	0.986837	0.0827767	9.91279
	0.985165	0.091866	9.80253
	0.994572	7.12438e-017	10.709
	0.991872	0.0123293	10.3638
	0.991038	0.0233091	10.2527
	0.990466	0.033826	10.2362
	0.989878	0.0440465	10.2602
	0.989255	0.0540086	10.2972
	0.988715	0.0637065	10.2825
	0.988363	0.0732401	10.1388
	0.987836	0.0827312	9.92757
	0.9863	0.0918442	9.81072
	0.995034	8.66559e-017	10.6798
	0.992495	0.0123746	10.3562
	0.991738	0.0233086	10.2465
	0.991221	0.033788	10.2298
	0.990681	0.0439814	10.2545
	0.990107	0.0539255	10.293
	0.989614	0.0636198	10.2832
	0.989301	0.0731682	10.1504
	0.98883	0.0826825	9.94328
	0.98743	0.0918198	9.81905
	0.99549	-3.74506e-018	10.6477
	0.99312	0.0124177	10.3474
	0.992439	0.0233036	10.2395
	0.991977	0.0337461	10.2226
	0.991485	0.0439134	10.2477
	0.990958	0.0538397	10.2878
	0.990511	0.06353	10.283
	0.990235	0.0730935	10.1617
	0.989818	0.0826314	9.95814
	0.988554	0.0917943	9.82857
	0.99594	-7.59551e-017	10.6126
	0.993746	0.0124591	10.337
	0.99314	0.0232951	10.2317
	0.992733	0.0337019	10.2145
	0.992288	0.0438449	10.2397
	0.991809	0.0537537	10.2811
	0.991406	0.0634394	10.2817
	0.991165	0.0730173	10.1719
	0.990801	0.0825785	9.97441
	0.989672	0.091767	9.83999
	0.996385	-6.43586e-017	10.5743
	0.994374	0.0124992	10.325
	0.993844	0.0232835	10.2228
	0.99349	0.0336565	10.2054
	0.993091	0.0437779	10.2305
	0.992659	0.0536701	10.273
	0.9923	0.0633499	10.2784
	0.992091	0.0729404	10.1804
	0.991779	0.0825239	9.99051
	0.990785	0.0917386	9.85411
	0.996823	-4.39424e-018	10.5326
	0.995005	0.0125382	10.3108
	0.994548	0.0232688	10.2128
	0.994247	0.03361	10.1951
	0.993895	0.0437138	10.2201
	0.99351	0.0535907	10.2632
	0.993193	0.063263	10.2729
	0.993015	0.0728631	10.186
	0.992752	0.0824673	10.0068
	0.991891	0.0917085	9.87058
	0.997257	5.97894e-017	10.4875
	0.99564	0.0125753	10.2942
	0.995255	0.0232495	10.2012
	0.995004	0.0335609	10.1831
	0.994698	0.0436519	10.2082
	0.994361	0.0535156	10.2519
	0.994086	0.0631784	10.2648
	0.993936	0.0727845	10.1882
	0.993721	0.0824076	10.022
	0.992991	0.0916768	9.89019
	0.997686	6.22319e-017	10.4391
	0.996279	0.0126086	10.275
	0.995964	0.0232224	10.1879
	0.995762	0.0335056	10.169
	0.995502	0.0435894	10.1946
	0.995213	0.0534425	10.2391
	0.994978	0.0630936	10.2543
	0.994855	0.0727013	10.186
	0.994686	0.0823425	10.0355
	0.994083	0.0916426	9.91305
	0.998111	-6.45805e-018	10.3879
	0.996923	0.0126354	10.2531
	0.996676	0.0231823	10.1727
	0.99652	0.033437	10.1523
	0.996305	0.0435198	10.1791
	0.996066	0.0533656	10.225
	0.995872	0.0630026	10.2416
	0.995773	0.0726081	10.1798
	0.995647	0.0822681	10.0462
	0.995168	0.0916053	9.93984
	0.998532	-4.48823e-017	10.3362
	0.997573	0.0126522	10.2296
	0.997392	0.0231207	10.1562
	0.997278	0.0333448	10.1338
	0.997109	0.0434336	10.1632
	0.996921	0.0532748	10.2115
	0.996768	0.0628962	10.2299
	0.996692	0.0724953	10.1727
	0.996604	0.0821787	10.0561
	0.996244	0.0915642	9.97272
	0.998949	-1.46745e-017	10.2963
	0.998231	0.0126571	10.2166
	0.998114	0.0230247	10.1488
	0.998035	0.0332174	10.1251
	0.997913	0.043319	10.1602
	0.997777	0.053158	10.2121
	0.997666	0.0627635	10.2346
	0.997611	0.0723519	10.1815
	0.997556	0.0820656	10.08
	0.997309	0.0915213	10.0249
	0.99936	9.69169e-018	10.423
	0.998899	0.0126483	10.3903
	0.998842	0.0228795	10.3091
	0.99879	0.0330483	10.2864
	0.998717	0.0431724	10.3336
	0.998633	0.0530012	10.3951
	0.998565	0.0626046	10.4248
	0.998531	0.0721693	10.3679
	0.998498	0.0819219	10.2636
	0.99836	0.09148	10.2519
	0.999756	3.47624e-018	16.6104
	0.999571	0.0125965	16.7988
	0.99956	0.0226856	16.4793
	0.999531	0.0328746	16.3962
	0.999507	0.0429885	16.4877
	0.999474	0.0528266	16.6075
	0.999447	0.062422	16.6372
	0.999435	0.0719844	16.4604
	0.999417	0.0817449	16.1948
	0.999373	0.0914328	16.3919
	1	2	12	11
	2	3	13	12
	3	4	14	13
	4	5	15	14
	5	6	16	15
	6	7	17	16
	7	8	18	17
	8	9	19	18
	9	10	20	19
	11	12	22	21
	12	13	23	22
	13	14	24	23
	14	15	25	24
	15	16	26	25
	16	17	27	26
	17	18	28	27
	18	19	29	28
	19	20	30	29
	21	22	32	31
	22	23	33	32
	23	24	34	33
	24	25	35	34
	25	26	36	35
	26	27	37	36
	27	28	38	37
	28	29	39	38
	29	30	40	39
	31	32	42	41
	32	33	43	42
	33	34	44	43
	34	35	45	44
	35	36	46	45
	36	37	47	46
	37	38	48	47
	38	39	49	48
	39	40	50	49
	41	42	52	51
	42	43	53	52
	43	44	54	53
	44	45	55	54
	45	46	56	55
	46	47	57	56
	47	48	58	57
	48	49	59	58
	49	50	60	59
	51	52	62	61
	52	53	63	62
	53	54	64	63
	54	55	65	64
	55	56	66	65
	56	57	67	66
	57	58	68	67
	58	59	69	68
	59	60	70	69
	61	62	72	71
	62	63	73	72
	63	64	74	73
	64	65	75	74
	65	66	76	75
	66	67	77	76
	67	68	78	77
	68	69	79	78
	69	70	80	79
	71	72	82	81
	72	73	83	82
	73	74	84	83
	74	75	85	84
	75	76	86	85
	76	77	87	86
	77	78	88	87
	78	79	89	88
	79	80	90	89
	81	82	92	91
	82	83	93	92
	83	84	94	93
	84	85	95	94
	85	86	96	95
	86	87	97	96
	87	88	98	97
	88	89	99	98
	89	90	100	99
	91	92	102	101
	92	93	103	102
	93	94	104	103
	94	95	105	104
	95	96	106	105
	96	97	107	106
	97	98	108	107
	98	99	109	108
	99	100	110	109
	101	102	112	111
	102	103	113	112
	103	104	114	113
	104	105	115	114
	105	106	116	115
	106	107	117	116
	107	108	118	117
	108	109	119	118
	109	110	120	119
	111	112	122	121
	112	113	123	122
	113	114	124	123
	114	115	125	124
	115	116	126	125
	116	117	127	126
	117	118	128	127
	118	119	129	128
	119	120	130	129
	121	122	132	131
	122	123	133	132
	123	124	134	133
	124	125	135	134
	125	126	136	135
	126	127	137	136
	127	128	138	137
	128	129	139	138
	129	130	140	139
	131	132	142	141
	132	133	143	142
	133	134	144	143
	134	135	145	144
	135	136	146	145
	136	137	147	146
	137	138	148	147
	138	139	149	148
	139	140	150	149
	141	142	152	151
	142	143	153	152
	143	144	154	153