VARIABLES=X,Y
ZONE N=51, E=40, F=FEPOINT, ET=QUADRILATERAL
	0	0
	0.02	-8.49302e-023
	0.0184776	0.00765367
	0.0141421	0.0141421
	0.00765367	0.0184776
	5.35898e-010	0.02
	0.04	-7.63099e-023
	0.0369552	0.0153073
	0.0282843	0.0282843
	0.0153073	0.0369552
	1.0718e-009	0.04
	0.06	1.04026e-023
	0.0554328	0.022961
	0.0424264	0.0424264
	0.022961	0.0554328
	1.60769e-009	0.06
	0.08	2.26238e-023
	0.0739104	0.0306147
	0.0565685	0.0565685
	0.0306147	0.0739104
	2.14359e-009	0.08
	0.0999995	-4.38588e-023
	0.0923875	0.0382682
	0.0707103	0.0707103
	0.0382682	0.0923875
	2.67948e-009	0.0999995
	0.102	-3.41612e-023
	0.0942357	0.0390337
	0.0721249	0.0721249
	0.0390337	0.0942357
	2.73308e-009	0.102
	0.104	2.06597e-023
	0.0960835	0.0397991
	0.0735391	0.0735391
	0.0397991	0.0960835
	2.78667e-009	0.104
	0.106	2.06597e-023
	0.0979312	0.0405644
	0.0749533	0.0749533
	0.0405644	0.0979312
	2.84026e-009	0.106
	0.108	-3.41612e-023
	0.099779	0.0413298
	0.0763675	0.0763675
	0.0413298	0.099779
	2.89385e-009	0.108
	0.109797	2.06597e-023
	0.101439	0.0420174
	0.0776379	0.0776379
	0.0420174	0.101439
	2.94199e-009	0.109797
	1	2	3	1
	1	3	4	1
	1	4	5	1
	1	5	6	1
	2	7	8	3
	3	8	9	4
	4	9	10	5
	5	10	11	6
	7	12	13	8
	8	13	14	9
	9	14	15	10
	10	15	16	11
	12	17	18	13
	13	18	19	14
	14	19	20	15
	15	20	21	16
	17	22	23	18
	18	23	24	19
	19	24	25	20
	20	25	26	21
	22	27	28	23
	23	28	29	24
	24	29	30	25
	25	30	31	26
	27	32	33	28
	28	33	34	29
	29	34	35	30
	30	35	36	31
	32	37	38	33
	33	38	39	34
	34	39	40	35
	35	40	41	36
	37	42	43	38
	38	43	44	39
	39	44	45	40
	40	45	46	41
	42	47	48	43
	43	48	49	44
	44	49	50	45
	45	50	51	46
