VARIABLES=X,Y
ZONE N=546, E=500, F=FEPOINT, ET=QUADRILATERAL
	0.0749794	9.12134e-017
	0.0748315	0.004708
	0.0743882	0.00939742
	0.0736513	0.0140497
	0.0726238	0.0186466
	0.0713097	0.0231699
	0.0697141	0.0276018
	0.0678434	0.0319247
	0.065705	0.0361216
	0.0633072	0.040176
	0.0606596	0.0440718
	0.0577727	0.0477937
	0.0546577	0.051327
	0.051327	0.0546577
	0.0477937	0.0577726
	0.0440718	0.0606596
	0.040176	0.0633072
	0.0361216	0.065705
	0.0319247	0.0678434
	0.0276018	0.0697141
	0.0231699	0.0713097
	0.0186466	0.0726238
	0.0140497	0.0736513
	0.00939742	0.0743882
	0.004708	0.0748315
	2.00907e-009	0.0749794
	0.11206	8.73631e-017
	0.111838	0.00703627
	0.111176	0.0140448
	0.110075	0.0209979
	0.108539	0.0278681
	0.106575	0.0346283
	0.10419	0.0412519
	0.101394	0.0477126
	0.0981985	0.0539851
	0.094615	0.0600445
	0.090658	0.0658669
	0.0863433	0.0714294
	0.0816879	0.07671
	0.07671	0.0816879
	0.0714294	0.0863433
	0.0658669	0.090658
	0.0600445	0.094615
	0.0539851	0.0981985
	0.0477126	0.101394
	0.0412519	0.10419
	0.0346283	0.106575
	0.0278681	0.108539
	0.0209979	0.110075
	0.0140448	0.111176
	0.00703628	0.111838
	3.00262e-009	0.11206
	0.134601	8.59639e-017
	0.134335	0.00845165
	0.133539	0.0168699
	0.132217	0.0252217
	0.130372	0.0334738
	0.128013	0.0415939
	0.125149	0.0495498
	0.12179	0.0573102
	0.117952	0.0648444
	0.113647	0.0721227
	0.108894	0.0791163
	0.103712	0.0857977
	0.0981197	0.0921405
	0.0921405	0.0981197
	0.0857977	0.103712
	0.0791163	0.108894
	0.0721227	0.113647
	0.0648444	0.117952
	0.0573102	0.12179
	0.0495498	0.125149
	0.0415939	0.128013
	0.0334738	0.130372
	0.0252217	0.132217
	0.0168699	0.133539
	0.00845165	0.134335
	3.60661e-009	0.134601
	0.148533	8.43415e-017
	0.14824	0.00932649
	0.147362	0.0186162
	0.145902	0.0278324
	0.143867	0.0369387
	0.141264	0.0458993
	0.138103	0.0546788
	0.134397	0.0632424
	0.130161	0.0715565
	0.125411	0.0795881
	0.120166	0.0873057
	0.114447	0.0946787
	0.108276	0.101678
	0.101678	0.108276
	0.0946787	0.114447
	0.0873057	0.120166
	0.0795882	0.125411
	0.0715565	0.130161
	0.0632424	0.134397
	0.0546788	0.138103
	0.0458993	0.141264
	0.0369387	0.143867
	0.0278324	0.145902
	0.0186162	0.147362
	0.00932649	0.14824
	3.97994e-009	0.148533
	0.157104	8.33375e-017
	0.156794	0.00986467
	0.155866	0.0196904
	0.154322	0.0294384
	0.152169	0.0390703
	0.149415	0.048548
	0.146072	0.057834
	0.142152	0.0668918
	0.137672	0.0756857
	0.132648	0.0841808
	0.1271	0.0923437
	0.121051	0.100142
	0.114524	0.107545
	0.107545	0.114524
	0.100142	0.121051
	0.0923437	0.1271
	0.0841808	0.132648
	0.0756857	0.137672
	0.0668918	0.142152
	0.057834	0.146072
	0.048548	0.149415
	0.0390703	0.152169
	0.0294384	0.154322
	0.0196904	0.155866
	0.00986468	0.156794
	4.2096e-009	0.157104
	0.162661	8.27114e-017
	0.16234	0.0102136
	0.161379	0.0203869
	0.15978	0.0304797
	0.157551	0.0404522
	0.1547	0.0502651
	0.151239	0.0598797
	0.14718	0.0692579
	0.142541	0.0783627
	0.13734	0.0871583
	0.131596	0.09561
	0.125333	0.103684
	0.118575	0.111349
	0.111349	0.118575
	0.103684	0.125333
	0.09561	0.131596
	0.0871583	0.13734
	0.0783627	0.142541
	0.0692579	0.14718
	0.0598797	0.151239
	0.0502651	0.1547
	0.0404523	0.157551
	0.0304797	0.15978
	0.0203869	0.161379
	0.0102136	0.16234
	4.3585e-009	0.162661
	0.166625	8.31424e-017
	0.166296	0.0104625
	0.165311	0.0208836
	0.163674	0.0312224
	0.16139	0.0414379
	0.15847	0.05149
	0.154924	0.0613387
	0.150767	0.0709455
	0.146015	0.0802722
	0.140686	0.0892821
	0.134802	0.0979397
	0.128387	0.106211
	0.121464	0.114063
	0.114063	0.121464
	0.106211	0.128387
	0.0979397	0.134802
	0.0892821	0.140686
	0.0802722	0.146015
	0.0709455	0.150767
	0.0613388	0.154924
	0.05149	0.15847
	0.041438	0.16139
	0.0312224	0.163674
	0.0208837	0.165311
	0.0104625	0.166296
	4.4647e-009	0.166625
	0.169722	8.66987e-017
	0.169387	0.0106569
	0.168384	0.0212718
	0.166716	0.0318027
	0.16439	0.0422081
	0.161415	0.0524469
	0.157803	0.0624788
	0.153569	0.072264
	0.148728	0.0817641
	0.143301	0.0909415
	0.137308	0.09976
	0.130773	0.108185
	0.123722	0.116183
	0.116183	0.123722
	0.108185	0.130773
	0.09976	0.137308
	0.0909415	0.143301
	0.0817641	0.148728
	0.0722641	0.153569
	0.0624788	0.157803
	0.0524469	0.161415
	0.0422081	0.16439
	0.0318027	0.166716
	0.0212718	0.168384
	0.0106569	0.169387
	4.54768e-009	0.169722
	0.17231	7.45025e-017
	0.17197	0.0108194
	0.170951	0.0215962
	0.169258	0.0322877
	0.166896	0.0428517
	0.163876	0.0532467
	0.16021	0.0634315
	0.155911	0.073366
	0.150996	0.0830109
	0.145486	0.0923283
	0.139402	0.101281
	0.132767	0.109834
	0.125609	0.117954
	0.117954	0.125609
	0.109834	0.132767
	0.101281	0.139402
	0.0923283	0.145486
	0.0830109	0.150996
	0.073366	0.155911
	0.0634315	0.16021
	0.0532467	0.163876
	0.0428517	0.166896
	0.0322877	0.169258
	0.0215962	0.170951
	0.0108194	0.17197
	4.61703e-009	0.17231
	0.174574	3.37613e-017
	0.17423	0.0109616
	0.173198	0.02188
	0.171482	0.032712
	0.16909	0.0434149
	0.16603	0.0539465
	0.162315	0.0642651
	0.15796	0.0743302
	0.152981	0.0841019
	0.147398	0.0935417
	0.141234	0.102612
	0.134512	0.111278
	0.127259	0.119504
	0.119504	0.127259
	0.111278	0.134512
	0.102612	0.141234
	0.0935417	0.147398
	0.0841019	0.152981
	0.0743302	0.15796
	0.0642651	0.162315
	0.0539465	0.16603
	0.0434149	0.16909
	0.032712	0.171482
	0.02188	0.173198
	0.0109616	0.17423
	4.6777e-009	0.174574
	0.176619	1.18146e-016
	0.176271	0.01109
	0.175226	0.0221362
	0.173491	0.0330951
	0.17107	0.0439234
	0.167975	0.0545783
	0.164216	0.0650178
	0.15981	0.0752007
	0.154772	0.0850869
	0.149124	0.0946372
	0.142888	0.103814
	0.136087	0.112581
	0.12875	0.120904
	0.120904	0.12875
	0.112581	0.136087
	0.103814	0.142888
	0.0946372	0.149124
	0.0850869	0.154772
	0.0752007	0.15981
	0.0650178	0.164216
	0.0545783	0.167975
	0.0439234	0.17107
	0.0330951	0.173491
	0.0221362	0.175226
	0.01109	0.176271
	4.73249e-009	0.176619
	0.178506	3.45057e-016
	0.178154	0.0112085
	0.177098	0.0223727
	0.175344	0.0334487
	0.172898	0.0443926
	0.169769	0.0551613
	0.165971	0.0657124
	0.161517	0.0760041
	0.156426	0.0859958
	0.150717	0.0956482
	0.144414	0.104923
	0.137541	0.113784
	0.130125	0.122196
	0.122196	0.130125
	0.113784	0.137541
	0.104923	0.144414
	0.0956482	0.150717
	0.0859958	0.156426
	0.0760041	0.161517
	0.0657124	0.165971
	0.0551613	0.169769
	0.0443926	0.172898
	0.0334487	0.175344
	0.0223727	0.177098
	0.0112085	0.178154
	4.78304e-009	0.178506
	0.180275	1.91111e-018
	0.179919	0.0113195
	0.178853	0.0225944
	0.177081	0.0337801
	0.174611	0.0448325
	0.171451	0.0557079
	0.167615	0.0663635
	0.163117	0.0767572
	0.157976	0.0868479
	0.152211	0.0965959
	0.145845	0.105963
	0.138904	0.114911
	0.131414	0.123406
	0.123406	0.131414
	0.114911	0.138904
	0.105963	0.145845
	0.0965959	0.152211
	0.0868479	0.157976
	0.0767572	0.163117
	0.0663635	0.167615
	0.0557079	0.171451
	0.0448325	0.174611
	0.0337801	0.177081
	0.0225944	0.178853
	0.0113195	0.179919
	4.83044e-009	0.180275
	0.181952	-7.92817e-016
	0.181593	0.0114249
	0.180517	0.0228046
	0.178729	0.0340944
	0.176236	0.0452496
	0.173047	0.0562262
	0.169175	0.066981
	0.164635	0.0774713
	0.159446	0.087656
	0.153627	0.0974947
	0.147202	0.106949
	0.140196	0.11598
	0.132637	0.124555
	0.124555	0.132637
	0.11598	0.140196
	0.106949	0.147202
	0.0974947	0.153627
	0.087656	0.159446
	0.0774713	0.164635
	0.066981	0.169175
	0.0562262	0.173047
	0.0452496	0.176236
	0.0340944	0.178729
	0.0228046	0.180517
	0.0114249	0.181593
	4.87538e-009	0.181952
	0.183557	7.18227e-017
	0.183194	0.0115256
	0.182109	0.0230057
	0.180305	0.0343951
	0.17779	0.0456487
	0.174573	0.0567221
	0.170667	0.0675717
	0.166087	0.0781546
	0.160852	0.0884291
	0.154982	0.0983545
	0.1485	0.107892
	0.141433	0.117003
	0.133807	0.125653
	0.125653	0.133807
	0.117003	0.141433
	0.107892	0.1485
	0.0983545	0.154982
	0.0884291	0.160852
	0.0781546	0.166087
	0.0675717	0.170667
	0.0567221	0.174573
	0.0456487	0.17779
	0.0343951	0.180305
	0.0230057	0.182109
	0.0115256	0.183194
	4.91838e-009	0.183557
	0.185102	1.89709e-015
	0.184737	0.0116227
	0.183643	0.0231995
	0.181824	0.0346847
	0.179287	0.0460331
	0.176043	0.0571997
	0.172104	0.0681407
	0.167486	0.0788127
	0.162206	0.0891737
	0.156287	0.0991827
	0.149751	0.1088
	0.142624	0.117989
	0.134934	0.126711
	0.126711	0.134934
	0.117989	0.142624
	0.1088	0.149751
	0.0991827	0.156287
	0.0891737	0.162206
	0.0788127	0.167486
	0.0681407	0.172104
	0.0571997	0.176043
	0.0460331	0.179287
	0.0346847	0.181824
	0.0231995	0.183643
	0.0116227	0.184737
	4.95979e-009	0.185102
	0.186599	5.5733e-016
	0.186231	0.0117166
	0.185128	0.0233871
	0.183294	0.0349652
	0.180737	0.0464053
	0.177466	0.0576623
	0.173495	0.0686917
	0.16884	0.07945
	0.163518	0.0898947
	0.157551	0.0999847
	0.150962	0.10968
	0.143777	0.118943
	0.136025	0.127736
	0.127736	0.136025
	0.118943	0.143777
	0.10968	0.150962
	0.0999847	0.157551
	0.0898947	0.163518
	0.07945	0.16884
	0.0686917	0.173495
	0.0576623	0.177466
	0.0464053	0.180737
	0.0349652	0.183294
	0.0233871	0.185128
	0.0117167	0.186231
	4.99989e-009	0.186599
	0.188055	-2.13345e-015
	0.187683	0.011808
	0.186572	0.0235695
	0.184724	0.0352379
	0.182146	0.0467673
	0.178851	0.0581121
	0.174849	0.0692275
	0.170157	0.0800697
	0.164793	0.090596
	0.15878	0.100765
	0.152139	0.110536
	0.144899	0.11987
	0.137086	0.128732
	0.128732	0.137086
	0.11987	0.144899
	0.110536	0.152139
	0.100765	0.15878
	0.090596	0.164793
	0.0800697	0.170157
	0.0692275	0.174849
	0.0581121	0.178851
	0.0467673	0.182146
	0.0352379	0.184724
	0.0235695	0.186572
	0.011808	0.187683
	5.0389e-009	0.188055
	0.189475	-1.12028e-015
	0.189101	0.0118972
	0.187981	0.0237475
	0.186119	0.0355041
	0.183522	0.0471205
	0.180201	0.058551
	0.176169	0.0697504
	0.171442	0.0806746
	0.166038	0.0912803
	0.159979	0.101526
	0.153289	0.111371
	0.145993	0.120776
	0.138121	0.129705
	0.129705	0.138121
	0.120776	0.145993
	0.111371	0.153289
	0.101526	0.159979
	0.0912803	0.166038
	0.0806746	0.171442
	0.0697504	0.176169
	0.058551	0.180201
	0.0471205	0.183522
	0.0355041	0.186119
	0.0237475	0.187981
	0.0118972	0.189101
	5.07697e-009	0.189475
	0.190865	9.61918e-016
	0.190489	0.0119845
	0.18936	0.0239218
	0.187485	0.0357646
	0.184869	0.0474663
	0.181524	0.0589806
	0.177462	0.0702622
	0.1727	0.0812665
	0.167257	0.0919501
	0.161153	0.102271
	0.154413	0.112188
	0.147064	0.121662
	0.139135	0.130656
	0.130656	0.139135
	0.121662	0.147064
	0.112188	0.154413
	0.102271	0.161153
	0.0919501	0.167257
	0.0812665	0.1727
	0.0702622	0.177462
	0.0589806	0.181524
	0.0474663	0.184869
	0.0357646	0.187485
	0.0239218	0.18936
	0.0119845	0.190489
	5.11422e-009	0.190865
	0.192229	1.29524e-015
	0.19185	0.0120702
	0.190713	0.0240927
	0.188824	0.0360202
	0.18619	0.0478055
	0.182821	0.0594021
	0.17873	0.0707643
	0.173934	0.0818472
	0.168452	0.0926071
	0.162304	0.103002
	0.155517	0.112989
	0.148115	0.122531
	0.140129	0.13159
	0.13159	0.140129
	0.122532	0.148115
	0.112989	0.155517
	0.103002	0.162304
	0.0926071	0.168452
	0.0818472	0.173934
	0.0707643	0.17873
	0.0594021	0.182821
	0.0478055	0.18619
	0.0360202	0.188824
	0.0240927	0.190713
	0.0120702	0.19185
	5.15076e-009	0.192229
	1	2	28	27
	2	3	29	28
	3	4	30	29
	4	5	31	30
	5	6	32	31
	6	7	33	32
	7	8	34	33
	8	9	35	34
	9	10	36	35
	10	11	37	36
	11	12	38	37
	12	13	39	38
	13	14	40	39
	14	15	41	40
	15	16	42	41
	16	17	43	42
	17	18	44	43
	18	19	45	44
	19	20	46	45
	20	21	47	46
	21	22	48	47
	22	23	49	48
	23	24	50	49
	24	25	51	50
	25	26	52	51
	27	28	54	53
	28	29	55	54
	29	30	56	55
	30	31	57	56
	31	32	58	57
	32	33	59	58
	33	34	60	59
	34	35	61	60
	35	36	62	61
	36	37	63	62
	37	38	64	63
	38	39	65	64
	39	40	66	65
	40	41	67	66
	41	42	68	67
	42	43	69	68
	43	44	70	69
	44	45	71	70
	45	46	72	71
	46	47	73	72
	47	48	74	73
	48	49	75	74
	49	50	76	75
	50	51	77	76
	51	52	78	77
	53	54	80	79
	54	55	81	80
	55	56	82	81
	56	57	83	82
	57	58	84	83
	58	59	85	84
	59	60	86	85
	60	61	87	86
	61	62	88	87
	62	63	89	88
	63	64	90	89
	64	65	91	90
	65	66	92	91
	66	67	93	92
	67	68	94	93
	68	69	95	94
	69	70	96	95
	70	71	97	96
	71	72	98	97
	72	73	99	98
	73	74	100	99
	74	75	101	100
	75	76	102	101
	76	77	103	102
	77	78	104	103
	79	80	106	105
	80	81	107	106
	81	82	108	107
	82	83	109	108
	83	84	110	109
	84	85	111	110
	85	86	112	111
	86	87	113	112
	87	88	114	113
	88	89	115	114
	89	90	116	115
	90	91	117	116
	91	92	118	117
	92	93	119	118
	93	94	120	119
	94	95	121	120
	95	96	122	121
	96	97	123	122
	97	98	124	123
	98	99	125	124
	99	100	126	125
	100	101	127	126
	101	102	128	127
	102	103	129	128
	103	104	130	129
	105	106	132	131
	106	107	133	132
	107	108	134	133
	108	109	135	134
	109	110	136	135
	110	111	137	136
	111	112	138	137
	112	113	139	138
	113	114	140	139
	114	115	141	140
	115	116	142	141
	116	117	143	142
	117	118	144	143
	118	119	145	144
	119	120	146	145
	120	121	147	146
	121	122	148	147
	122	123	149	148
	123	124	150	149
	124	125	151	150
	125	126	152	151
	126	127	153	152
	127	128	154	153
	128	129	155	154
	129	130	156	155
	131	132	158	157
	132	133	159	158
	133	134	160	159
	134	135	161	160
	135	136	162	161
	136	137	163	162
	137	138	164	163
	138	139	165	164
	139	140	166	165
	140	141	167	166
	141	142	168	167
	142	143	169	168
	143	144	170	169
	144	145	171	170
	145	146	172	171
	146	147	173	172
	147	148	174	173
	148	149	175	174
	149	150	176	175
	150	151	177	176
	151	152	178	177
	152	153	179	178
	153	154	180	179
	154	155	181	180
	155	156	182	181
	157	158	184	183
	158	159	185	184
	159	160	186	185
	160	161	187	186
	161	162	188	187
	162	163	189	188
	163	164	190	189
	164	165	191	190
	165	166	192	191
	166	167	193	192
	167	168	194	193
	168	169	195	194
	169	170	196	195
	170	171	197	196
	171	172	198	197
	172	173	199	198
	173	174	200	199
	174	175	201	200
	175	176	202	201
	176	177	203	202
	177	178	204	203
	178	179	205	204
	179	180	206	205
	180	181	207	206
	181	182	208	207
	183	184	210	209
	184	185	211	210
	185	186	212	211
	186	187	213	212
	187	188	214	213
	188	189	215	214
	189	190	216	215
	190	191	217	216
	191	192	218	217
	192	193	219	218
	193	194	220	219
	194	195	221	220
	195	196	222	221
	196	197	223	222
	197	198	224	223
	198	199	225	224
	199	200	226	225
	200	201	227	226
	201	202	228	227
	202	203	229	228
	203	204	230	229
	204	205	231	230
	205	206	232	231
	206	207	233	232
	207	208	234	233
	209	210	236	235
	210	211	237	236
	211	212	238	237
	212	213	239	238
	213	214	240	239
	214	215	241	240
	215	216	242	241
	216	217	243	242
	217	218	244	243
	218	219	245	244
	219	220	246	245
	220	221	247	246
	221	222	248	247
	222	223	249	248
	223	224	250	249
	224	225	251	250
	225	226	252	251
	226	227	253	252
	227	228	254	253
	228	229	255	254
	229	230	256	255
	230	231	257	256
	231	232	258	257
	232	233	259	258
	233	234	260	259
	235	236	262	261
	236	237	263	262
	237	238	264	263
	238	239	265	264
	239	240	266	265
	240	241	267	266
	241	242	268	267
	242	243	269	268
	243	244	270	269
	244	245	271	270
	245	246	272	271
	246	247	273	272
	247	248	274	273
	248	249	275	274
	249	250	276	275
	250	251	277	276
	251	252	278	277
	252	253	279	278
	253	254	280	279
	254	255	281	280
	255	256	282	281
	256	257	283	282
	257	258	284	283
	258	259	285	284
	259	260	286	285
	261	262	288	287
	262	263	289	288
	263	264	290	289
	264	265	291	290
	265	266	292	291
	266	267	293	292
	267	268	294	293
	268	269	295	294
	269	270	296	295
	270	271	297	296
	271	272	298	297
	272	273	299	298
	273	274	300	299
	274	275	301	300
	275	276	302	301
	276	277	303	302
	277	278	304	303
	278	279	305	304
	279	280	306	305
	280	281	307	306
	281	282	308	307
	282	283	309	308
	283	284	310	309
	284	285	311	310
	285	286	312	311
	287	288	314	313
	288	289	315	314
	289	290	316	315
	290	291	317	316
	291	292	318	317
	292	293	319	318
	293	294	320	319
	294	295	321	320
	295	296	322	321
	296	297	323	322
	297	298	324	323
	298	299	325	324
	299	300	326	325
	300	301	327	326
	301	302	328	327
	302	303	329	328
	303	304	330	329
	304	305	331	330
	305	306	332	331
	306	307	333	332
	307	308	334	333
	308	309	335	334
	309	310	336	335
	310	311	337	336
	311	312	338	337
	313	314	340	339
	314	315	341	340
	315	316	342	341
	316	317	343	342
	317	318	344	343
	318	319	345	344
	319	320	346	345
	320	321	347	346
	321	322	348	347
	322	323	349	348
	323	324	350	349
	324	325	351	350
	325	326	352	351
	326	327	353	352
	327	328	354	353
	328	329	355	354
	329	330	356	355
	330	331	357	356
	331	332	358	357
	332	333	359	358
	333	334	360	359
	334	335	361	360
	335	336	362	361
	336	337	363	362
	337	338	364	363
	339	340	366	365
	340	341	367	366
	341	342	368	367
	342	343	369	368
	343	344	370	369
	344	345	371	370
	345	346	372	371
	346	347	373	372
	347	348	374	373
	348	349	375	374
	349	350	376	375
	350	351	377	376
	351	352	378	377
	352	353	379	378
	353	354	380	379
	354	355	381	380
	355	356	382	381
	356	357	383	382
	357	358	384	383
	358	359	385	384
	359	360	386	385
	360	361	387	386
	361	362	388	387
	362	363	389	388
	363	364	390	389
	365	366	392	391
	366	367	393	392
	367	368	394	393
	368	369	395	394
	369	370	396	395
	370	371	397	396
	371	372	398	397
	372	373	399	398
	373	374	400	399
	374	375	401	400
	375	376	402	401
	376	377	403	402
	377	378	404	403
	378	379	405	404
	379	380	406	405
	380	381	407	406
	381	382	408	407
	382	383	409	408
	383	384	410	409
	384	385	411	410
	385	386	412	411
	386	387	413	412
	387	388	414	413
	388	389	415	414
	389	390	416	415
	391	392	418	417
	392	393	419	418
	393	394	420	419
	394	395	421	420
	395	396	422	421
	396	397	423	422
	397	398	424	423
	398	399	425	424
	399	400	426	425
	400	401	427	426
	401	402	428	427
	402	403	429	428
	403	404	430	429
	404	405	431	430
	405	406	432	431
	406	407	433	432
	407	408	434	433
	408	409	435	434
	409	410	436	435
	410	411	437	436
	411	412	438	437
	412	413	439	438
	413	414	440	439
	414	415	441	440
	415	416	442	441
	417	418	444	443
	418	419	445	444
	419	420	446	445
	420	421	447	446
	421	422	448	447
	422	423	449	448
	423	424	450	449
	424	425	451	450
	425	426	452	451
	426	427	453	452
	427	428	454	453
	428	429	455	454
	429	430	456	455
	430	431	457	456
	431	432	458	457
	432	433	459	458
	433	434	460	459
	434	435	461	460
	435	436	462	461
	436	437	463	462
	437	438	464	463
	438	439	465	464
	439	440	466	465
	440	441	467	466
	441	442	468	467
	443	444	470	469
	444	445	471	470
	445	446	472	471
	446	447	473	472
	447	448	474	473
	448	449	475	474
	449	450	476	475
	450	451	477	476
	451	452	478	477
	452	453	479	478
	453	454	480	479
	454	455	481	480
	455	456	482	481
	456	457	483	482
	457	458	484	483
	458	459	485	484
	459	460	486	485
	460	461	487	486
	461	462	488	487
	462	463	489	488
	463	464	490	489
	464	465	491	490
	465	466	492	491
	466	467	493	492
	467	468	494	493
	469	470	496	495
	470	471	497	496
	471	472	498	497
	472	473	499	498
	473	474	500	499
	474	475	501	500
	475	476	502	501
	476	477	503	502
	477	478	504	503
	478	479	505	504
	479	480	506	505
	480	481	507	506
	481	482	508	507
	482	483	509	508
	483	484	510	509
	484	485	511	510
	485	486	512	511
	486	487	513	512
	487	488	514	513
	488	489	515	514
	489	490	516	515
	490	491	517	516
	491	492	518	517
	492	493	519	518
	493	494	520	519
	495	496	522	521
	496	497	523	522
	497	498	524	523
	498	499	525	524
	499	500	526	525
	500	501	527	526
	501	502	528	527
	502	503	529	528
	503	504	530	529
	504	505	531	530
	505	506	532	531
	506	507	533	532
	507	508	534	533
	508	509	535	534
	509	510	536	535
	510	511	537	536
	511	512	538	537
	512	513	539	538
	513	514	540	539
	514	515	541	540
	515	516	542	541
	516	517	543	542
	517	518	544	543
	518	519	545	544
	519	520	546	545
