VARIABLES=X,Y
ZONE N=551, E=500, F=FEPOINT, ET=QUADRILATERAL
	0	0
	0.00365923	4.28349e-019
	0.00361418	0.00057243
	0.00348013	0.00113076
	0.0032604	0.00166126
	0.00296038	0.00215084
	0.00258747	0.00258747
	0.00215084	0.00296038
	0.00166126	0.0032604
	0.00113076	0.00348013
	0.00057243	0.00361418
	9.80487e-011	0.00365923
	0.0083599	-3.80679e-019
	0.00825697	0.00130778
	0.00795073	0.00258335
	0.00744872	0.00379531
	0.0067633	0.00491382
	0.00591134	0.00591134
	0.00491382	0.0067633
	0.00379531	0.00744872
	0.00258335	0.00795073
	0.00130778	0.00825697
	2.24003e-010	0.0083599
	0.0135633	-5.89737e-019
	0.0133963	0.00212176
	0.0128994	0.00419128
	0.012085	0.00615759
	0.0109729	0.00797229
	0.00959068	0.00959068
	0.00797229	0.0109729
	0.00615759	0.012085
	0.00419128	0.0128994
	0.00212176	0.0133963
	3.63426e-010	0.0135633
	0.0190244	-8.75553e-019
	0.0187902	0.00297607
	0.0180933	0.00587886
	0.0169508	0.00863689
	0.015391	0.0111822
	0.0134523	0.0134523
	0.0111822	0.015391
	0.00863689	0.0169508
	0.00587886	0.0180933
	0.00297607	0.0187902
	5.09756e-010	0.0190244
	0.0243613	3.02358e-019
	0.0240614	0.00381095
	0.023169	0.00752806
	0.0217061	0.0110598
	0.0197087	0.0143192
	0.0172261	0.0172261
	0.0143192	0.0197087
	0.0110598	0.0217061
	0.00752806	0.023169
	0.00381095	0.0240614
	6.52759e-010	0.0243613
	0.0295523	-1.15165e-018
	0.0291885	0.00462301
	0.028106	0.00913218
	0.0263313	0.0134165
	0.0239084	0.0173704
	0.0208967	0.0208967
	0.0173704	0.0239084
	0.0134165	0.0263313
	0.00913218	0.028106
	0.00462301	0.0291885
	7.91852e-010	0.0295523
	0.0346359	4.2379e-019
	0.0342094	0.00541824
	0.0329407	0.0107031
	0.0308608	0.0157243
	0.028021	0.0203584
	0.0244912	0.0244912
	0.0203584	0.028021
	0.0157243	0.0308608
	0.0107031	0.0329407
	0.00541824	0.0342094
	9.28064e-010	0.0346359
	0.0396465	3.97549e-019
	0.0391584	0.00620207
	0.037706	0.0122514
	0.0353253	0.0179991
	0.0320747	0.0233036
	0.0280343	0.0280343
	0.0233036	0.0320747
	0.0179991	0.0353253
	0.0122514	0.037706
	0.00620208	0.0391584
	1.06232e-009	0.0396465
	0.0446079	-2.05126e-020
	0.0440587	0.00697822
	0.0424247	0.0137846
	0.0397459	0.0202516
	0.0360886	0.0262199
	0.0315426	0.0315426
	0.0262199	0.0360886
	0.0202516	0.0397459
	0.0137846	0.0424247
	0.00697822	0.0440587
	1.19526e-009	0.0446079
	0.0495354	-1.65966e-019
	0.0489256	0.00774905
	0.047111	0.0153073
	0.0441364	0.0224886
	0.040075	0.0291162
	0.0350268	0.0350268
	0.0291162	0.040075
	0.0224886	0.0441364
	0.0153073	0.047111
	0.00774905	0.0489256
	1.3273e-009	0.0495354
	0.0544388	5.86981e-019
	0.0537686	0.00851611
	0.0517744	0.0168225
	0.0485054	0.0247147
	0.0440419	0.0319983
	0.0384941	0.0384941
	0.0319983	0.0440419
	0.0247147	0.0485054
	0.0168225	0.0517744
	0.00851611	0.0537686
	1.45868e-009	0.0544388
	0.0593246	-5.55195e-019
	0.0585942	0.00928041
	0.056421	0.0183323
	0.0528586	0.0269328
	0.0479946	0.0348701
	0.0419488	0.0419488
	0.0348701	0.0479946
	0.0269328	0.0528586
	0.0183323	0.056421
	0.00928041	0.0585942
	1.5896e-009	0.0593246
	0.064197	8.36083e-019
	0.0634067	0.0100426
	0.061055	0.019838
	0.0572	0.0291448
	0.0519365	0.0377341
	0.0453942	0.0453942
	0.0377341	0.0519365
	0.0291449	0.0572
	0.019838	0.061055
	0.0100426	0.0634067
	1.72015e-009	0.064197
	0.0690594	4.21056e-019
	0.0682091	0.0108033
	0.0656794	0.0213405
	0.0615323	0.0313523
	0.0558702	0.0405921
	0.0488323	0.0488323
	0.0405921	0.0558702
	0.0313523	0.0615323
	0.0213405	0.0656794
	0.0108033	0.0682091
	1.85044e-009	0.0690594
	0.0739137	3.61904e-019
	0.0730037	0.0115627
	0.0702962	0.0228406
	0.0658576	0.0335561
	0.0597975	0.0434454
	0.0522649	0.0522649
	0.0434454	0.0597975
	0.0335561	0.0658576
	0.0228406	0.0702962
	0.0115627	0.0730037
	1.98051e-009	0.0739137
	0.0787618	-4.80868e-019
	0.0777922	0.0123211
	0.074907	0.0243387
	0.0701773	0.0357571
	0.0637197	0.0462951
	0.055693	0.055693
	0.0462951	0.0637197
	0.0357571	0.0701773
	0.0243388	0.074907
	0.0123211	0.0777922
	2.11042e-009	0.0787618
	0.0836049	-1.40842e-019
	0.0825756	0.0130787
	0.079513	0.0258353
	0.0744925	0.0379558
	0.0676378	0.0491417
	0.0591176	0.0591176
	0.0491417	0.0676378
	0.0379558	0.0744925
	0.0258353	0.079513
	0.0130787	0.0825756
	2.24018e-009	0.0836049
	0.0884438	5.39117e-019
	0.0873549	0.0138357
	0.0841151	0.0273306
	0.078804	0.0401527
	0.0715525	0.051986
	0.0625392	0.0625392
	0.051986	0.0715525
	0.0401527	0.078804
	0.0273306	0.0841151
	0.0138357	0.0873549
	2.36984e-009	0.0884438
	0.0932794	-1.09898e-019
	0.0921309	0.0145921
	0.0887139	0.0288249
	0.0831125	0.0423479
	0.0754646	0.0548282
	0.0659585	0.0659585
	0.0548282	0.0754646
	0.0423479	0.0831125
	0.0288249	0.0887139
	0.0145921	0.0921309
	2.49941e-009	0.0932794
	0.0981121	-3.36912e-020
	0.0969042	0.0153481
	0.0933101	0.0303183
	0.0874185	0.044542
	0.0793743	0.0576688
	0.0693757	0.0693757
	0.0576688	0.0793743
	0.044542	0.0874185
	0.0303183	0.0933101
	0.0153481	0.0969042
	2.6289e-009	0.0981121
	0.102942	8.22571e-020
	0.101675	0.0161037
	0.0979041	0.031811
	0.0917224	0.0467349
	0.0832822	0.0605081
	0.0727913	0.0727913
	0.0605081	0.0832822
	0.0467349	0.0917224
	0.031811	0.0979041
	0.0161037	0.101675
	2.75833e-009	0.102942
	0.107771	8.47291e-019
	0.106444	0.0168591
	0.102496	0.033303
	0.0960245	0.0489269
	0.0871884	0.0633461
	0.0762055	0.0762055
	0.0633461	0.0871884
	0.0489269	0.0960245
	0.033303	0.102496
	0.0168591	0.106444
	2.88771e-009	0.107771
	0.112598	4.44247e-019
	0.111211	0.0176141
	0.107087	0.0347946
	0.100325	0.0511182
	0.0910933	0.0661832
	0.0796185	0.0796185
	0.0661832	0.0910933
	0.0511182	0.100325
	0.0347946	0.107087
	0.0176141	0.111211
	3.01704e-009	0.112598
	0.117423	-5.21117e-020
	0.115977	0.018369
	0.111676	0.0362856
	0.104625	0.0533088
	0.0949971	0.0690194
	0.0830305	0.0830305
	0.0690194	0.0949971
	0.0533088	0.104625
	0.0362857	0.111676
	0.018369	0.115977
	3.14633e-009	0.117423
	0.122247	-1.25044e-018
	0.120742	0.0191236
	0.116264	0.0377764
	0.108923	0.0554989
	0.0988998	0.0718549
	0.0864416	0.0864416
	0.0718549	0.0988998
	0.0554989	0.108923
	0.0377764	0.116264
	0.0191236	0.120742
	3.27559e-009	0.122247
	0.12707	-3.08325e-019
	0.125505	0.0198781
	0.120851	0.0392667
	0.11322	0.0576885
	0.102802	0.0746898
	0.0898519	0.0898519
	0.0746898	0.102802
	0.0576885	0.11322
	0.0392667	0.120851
	0.0198781	0.125505
	3.40482e-009	0.12707
	0.131892	-5.41034e-021
	0.130268	0.0206324
	0.125437	0.0407568
	0.117517	0.0598777
	0.106703	0.0775241
	0.0932617	0.0932617
	0.0775241	0.106703
	0.0598777	0.117517
	0.0407568	0.125437
	0.0206324	0.130268
	3.53403e-009	0.131892
	0.136714	2.75386e-019
	0.13503	0.0213867
	0.130022	0.0422468
	0.121813	0.0620667
	0.110604	0.0803582
	0.0966711	0.0966711
	0.0803582	0.110604
	0.0620667	0.121813
	0.0422468	0.130022
	0.0213867	0.13503
	3.66323e-009	0.136714
	0.141535	4.54474e-020
	0.139792	0.0221409
	0.134607	0.0437366
	0.126108	0.0642554
	0.114504	0.083192
	0.10008	0.10008
	0.083192	0.114504
	0.0642554	0.126108
	0.0437366	0.134607
	0.0221409	0.139792
	3.79241e-009	0.141535
	0.146354	2.22645e-019
	0.144552	0.0228948
	0.139191	0.0452258
	0.130402	0.0664432
	0.118403	0.0860246
	0.103488	0.103488
	0.0860246	0.118403
	0.0664432	0.130402
	0.0452258	0.139191
	0.0228948	0.144552
	3.92153e-009	0.146354
	0.151171	5.79401e-019
	0.14931	0.0236484
	0.143772	0.0467144
	0.134694	0.0686302
	0.1223	0.0888561
	0.106894	0.106894
	0.0888561	0.1223
	0.0686302	0.134694
	0.0467144	0.143772
	0.0236484	0.14931
	4.05061e-009	0.151171
	0.155994	4.21723e-019
	0.154074	0.0244029
	0.148359	0.0482049
	0.138992	0.07082
	0.126202	0.0916912
	0.110305	0.110305
	0.0916912	0.126202
	0.07082	0.138992
	0.0482049	0.148359
	0.0244029	0.154074
	4.17985e-009	0.155994
	0.160842	1.31099e-019
	0.158862	0.0251612
	0.15297	0.0497029
	0.143311	0.0730208
	0.130124	0.0945406
	0.113733	0.113733
	0.0945406	0.130124
	0.0730208	0.143311
	0.0497029	0.15297
	0.0251613	0.158862
	4.30975e-009	0.160842
	0.165751	-8.0982e-021
	0.16371	0.0259291
	0.157638	0.0512197
	0.147685	0.0752492
	0.134095	0.0974257
	0.117203	0.117203
	0.0974257	0.134095
	0.0752492	0.147685
	0.0512197	0.157638
	0.0259291	0.16371
	4.44127e-009	0.165751
	0.170978	8.34648e-022
	0.168873	0.0267468
	0.162609	0.052835
	0.152342	0.0776222
	0.138324	0.100498
	0.120899	0.120899
	0.100498	0.138324
	0.0776222	0.152342
	0.052835	0.162609
	0.0267468	0.168873
	4.58133e-009	0.170978
	0.177625	-1.19235e-019
	0.175438	0.0277866
	0.168931	0.0548891
	0.158265	0.08064
	0.143701	0.104405
	0.1256	0.1256
	0.104405	0.143701
	0.08064	0.158265
	0.0548891	0.168931
	0.0277866	0.175438
	4.75944e-009	0.177625
	0.189757	-1.19012e-019
	0.187421	0.0296846
	0.18047	0.0586383
	0.169075	0.0861481
	0.153517	0.111537
	0.134179	0.134179
	0.111537	0.153517
	0.0861481	0.169075
	0.0586383	0.18047
	0.0296846	0.187421
	5.08453e-009	0.189757
	0.208984	9.83237e-021
	0.206411	0.0326923
	0.198755	0.0645795
	0.186206	0.0948766
	0.169071	0.122838
	0.147774	0.147774
	0.122838	0.169071
	0.0948766	0.186206
	0.0645795	0.198755
	0.0326923	0.206411
	5.5997e-009	0.208984
	0.228879	1.23236e-019
	0.226062	0.0358046
	0.217677	0.0707276
	0.203933	0.103909
	0.185167	0.134532
	0.161842	0.161842
	0.134532	0.185167
	0.103909	0.203933
	0.0707277	0.217677
	0.0358046	0.226062
	6.1328e-009	0.228879
	0.248799	1.64579e-019
	0.245736	0.0389207
	0.236622	0.0768831
	0.221681	0.112952
	0.201283	0.14624
	0.175927	0.175927
	0.14624	0.201283
	0.112952	0.221681
	0.0768831	0.236622
	0.0389207	0.245736
	6.66654e-009	0.248799
	0.26873	1.28967e-019
	0.265422	0.0420387
	0.255578	0.0830422
	0.23944	0.122001
	0.217407	0.157956
	0.190021	0.190021
	0.157956	0.217407
	0.122001	0.23944
	0.0830422	0.255578
	0.0420387	0.265422
	7.2006e-009	0.26873
	0.288671	1.30328e-019
	0.285117	0.0451581
	0.274542	0.0892042
	0.257208	0.131054
	0.23354	0.169676
	0.204121	0.204121
	0.169676	0.23354
	0.131054	0.257208
	0.0892042	0.274542
	0.0451581	0.285117
	7.73491e-009	0.288671
	0.308619	2.75502e-020
	0.30482	0.0482787
	0.293514	0.0953686
	0.274982	0.14011
	0.249678	0.181402
	0.218227	0.218227
	0.181402	0.249678
	0.14011	0.274982
	0.0953686	0.293514
	0.0482787	0.30482
	8.26942e-009	0.308619
	0.328574	-1.30228e-019
	0.324529	0.0514003
	0.312493	0.101535
	0.292762	0.14917
	0.265822	0.193131
	0.232337	0.232337
	0.193131	0.265822
	0.14917	0.292762
	0.101535	0.312493
	0.0514003	0.324529
	8.80411e-009	0.328574
	0.348534	1.45335e-019
	0.344243	0.0545228
	0.331476	0.107703
	0.310546	0.158231
	0.28197	0.204863
	0.246451	0.246451
	0.204863	0.28197
	0.158231	0.310546
	0.107703	0.331476
	0.0545228	0.344243
	9.33894e-009	0.348534
	0.368499	1.76083e-019
	0.363963	0.057646
	0.350464	0.113873
	0.328335	0.167295
	0.298122	0.216599
	0.260568	0.260568
	0.216599	0.298122
	0.167295	0.328335
	0.113873	0.350464
	0.057646	0.363963
	9.8739e-009	0.368499
	0.388474	2.69221e-020
	0.383691	0.0607707
	0.36946	0.120045
	0.346133	0.176363
	0.314282	0.228339
	0.274692	0.274692
	0.228339	0.314282
	0.176363	0.346133
	0.120045	0.36946
	0.0607707	0.383691
	1.04091e-008	0.388474
	0.408507	-4.36934e-021
	0.403477	0.0639045
	0.388513	0.126236
	0.363982	0.185458
	0.330489	0.240114
	0.288858	0.288858
	0.240114	0.330489
	0.185458	0.363982
	0.126236	0.388513
	0.0639046	0.403477
	1.09459e-008	0.408507
	0.429039	-5.0564e-021
	0.423757	0.0671165
	0.408041	0.13258
	0.382277	0.19478
	0.3471	0.252183
	0.303377	0.303377
	0.252183	0.3471
	0.19478	0.382277
	0.13258	0.408041
	0.0671165	0.423757
	1.14961e-008	0.429039
	0.45474	7.93697e-021
	0.449142	0.071137
	0.432484	0.140522
	0.405176	0.206448
	0.367893	0.26729
	0.32155	0.32155
	0.26729	0.367893
	0.206448	0.405176
	0.140522	0.432484
	0.071137	0.449142
	1.21847e-008	0.45474
	1	2	3	1
	1	3	4	1
	1	4	5	1
	1	5	6	1
	1	6	7	1
	1	7	8	1
	1	8	9	1
	1	9	10	1
	1	10	11	1
	1	11	12	1
	2	13	14	3
	3	14	15	4
	4	15	16	5
	5	16	17	6
	6	17	18	7
	7	18	19	8
	8	19	20	9
	9	20	21	10
	10	21	22	11
	11	22	23	12
	13	24	25	14
	14	25	26	15
	15	26	27	16
	16	27	28	17
	17	28	29	18
	18	29	30	19
	19	30	31	20
	20	31	32	21
	21	32	33	22
	22	33	34	23
	24	35	36	25
	25	36	37	26
	26	37	38	27
	27	38	39	28
	28	39	40	29
	29	40	41	30
	30	41	42	31
	31	42	43	32
	32	43	44	33
	33	44	45	34
	35	46	47	36
	36	47	48	37
	37	48	49	38
	38	49	50	39
	39	50	51	40
	40	51	52	41
	41	52	53	42
	42	53	54	43
	43	54	55	44
	44	55	56	45
	46	57	58	47
	47	58	59	48
	48	59	60	49
	49	60	61	50
	50	61	62	51
	51	62	63	52
	52	63	64	53
	53	64	65	54
	54	65	66	55
	55	66	67	56
	57	68	69	58
	58	69	70	59
	59	70	71	60
	60	71	72	61
	61	72	73	62
	62	73	74	63
	63	74	75	64
	64	75	76	65
	65	76	77	66
	66	77	78	67
	68	79	80	69
	69	80	81	70
	70	81	82	71
	71	82	83	72
	72	83	84	73
	73	84	85	74
	74	85	86	75
	75	86	87	76
	76	87	88	77
	77	88	89	78
	79	90	91	80
	80	91	92	81
	81	92	93	82
	82	93	94	83
	83	94	95	84
	84	95	96	85
	85	96	97	86
	86	97	98	87
	87	98	99	88
	88	99	100	89
	90	101	102	91
	91	102	103	92
	92	103	104	93
	93	104	105	94
	94	105	106	95
	95	106	107	96
	96	107	108	97
	97	108	109	98
	98	109	110	99
	99	110	111	100
	101	112	113	102
	102	113	114	103
	103	114	115	104
	104	115	116	105
	105	116	117	106
	106	117	118	107
	107	118	119	108
	108	119	120	109
	109	120	121	110
	110	121	122	111
	112	123	124	113
	113	124	125	114
	114	125	126	115
	115	126	127	116
	116	127	128	117
	117	128	129	118
	118	129	130	119
	119	130	131	120
	120	131	132	121
	121	132	133	122
	123	134	135	124
	124	135	136	125
	125	136	137	126
	126	137	138	127
	127	138	139	128
	128	139	140	129
	129	140	141	130
	130	141	142	131
	131	142	143	132
	132	143	144	133
	134	145	146	135
	135	146	147	136
	136	147	148	137
	137	148	149	138
	138	149	150	139
	139	150	151	140
	140	151	152	141
	141	152	153	142
	142	153	154	143
	143	154	155	144
	145	156	157	146
	146	157	158	147
	147	158	159	148
	148	159	160	149
	149	160	161	150
	150	161	162	151
	151	162	163	152
	152	163	164	153
	153	164	165	154
	154	165	166	155
	156	167	168	157
	157	168	169	158
	158	169	170	159
	159	170	171	160
	160	171	172	161
	161	172	173	162
	162	173	174	163
	163	174	175	164
	164	175	176	165
	165	176	177	166
	167	178	179	168
	168	179	180	169
	169	180	181	170
	170	181	182	171
	171	182	183	172
	172	183	184	173
	173	184	185	174
	174	185	186	175
	175	186	187	176
	176	187	188	177
	178	189	190	179
	179	190	191	180
	180	191	192	181
	181	192	193	182
	182	193	194	183
	183	194	195	184
	184	195	196	185
	185	196	197	186
	186	197	198	187
	187	198	199	188
	189	200	201	190
	190	201	202	191
	191	202	203	192
	192	203	204	193
	193	204	205	194
	194	205	206	195
	195	206	207	196
	196	207	208	197
	197	208	209	198
	198	209	210	199
	200	211	212	201
	201	212	213	202
	202	213	214	203
	203	214	215	204
	204	215	216	205
	205	216	217	206
	206	217	218	207
	207	218	219	208
	208	219	220	209
	209	220	221	210
	211	222	223	212
	212	223	224	213
	213	224	225	214
	214	225	226	215
	215	226	227	216
	216	227	228	217
	217	228	229	218
	218	229	230	219
	219	230	231	220
	220	231	232	221
	222	233	234	223
	223	234	235	224
	224	235	236	225
	225	236	237	226
	226	237	238	227
	227	238	239	228
	228	239	240	229
	229	240	241	230
	230	241	242	231
	231	242	243	232
	233	244	245	234
	234	245	246	235
	235	246	247	236
	236	247	248	237
	237	248	249	238
	238	249	250	239
	239	250	251	240
	240	251	252	241
	241	252	253	242
	242	253	254	243
	244	255	256	245
	245	256	257	246
	246	257	258	247
	247	258	259	248
	248	259	260	249
	249	260	261	250
	250	261	262	251
	251	262	263	252
	252	263	264	253
	253	264	265	254
	255	266	267	256
	256	267	268	257
	257	268	269	258
	258	269	270	259
	259	270	271	260
	260	271	272	261
	261	272	273	262
	262	273	274	263
	263	274	275	264
	264	275	276	265
	266	277	278	267
	267	278	279	268
	268	279	280	269
	269	280	281	270
	270	281	282	271
	271	282	283	272
	272	283	284	273
	273	284	285	274
	274	285	286	275
	275	286	287	276
	277	288	289	278
	278	289	290	279
	279	290	291	280
	280	291	292	281
	281	292	293	282
	282	293	294	283
	283	294	295	284
	284	295	296	285
	285	296	297	286
	286	297	298	287
	288	299	300	289
	289	300	301	290
	290	301	302	291
	291	302	303	292
	292	303	304	293
	293	304	305	294
	294	305	306	295
	295	306	307	296
	296	307	308	297
	297	308	309	298
	299	310	311	300
	300	311	312	301
	301	312	313	302
	302	313	314	303
	303	314	315	304
	304	315	316	305
	305	316	317	306
	306	317	318	307
	307	318	319	308
	308	319	320	309
	310	321	322	311
	311	322	323	312
	312	323	324	313
	313	324	325	314
	314	325	326	315
	315	326	327	316
	316	327	328	317
	317	328	329	318
	318	329	330	319
	319	330	331	320
	321	332	333	322
	322	333	334	323
	323	334	335	324
	324	335	336	325
	325	336	337	326
	326	337	338	327
	327	338	339	328
	328	339	340	329
	329	340	341	330
	330	341	342	331
	332	343	344	333
	333	344	345	334
	334	345	346	335
	335	346	347	336
	336	347	348	337
	337	348	349	338
	338	349	350	339
	339	350	351	340
	340	351	352	341
	341	352	353	342
	343	354	355	344
	344	355	356	345
	345	356	357	346
	346	357	358	347
	347	358	359	348
	348	359	360	349
	349	360	361	350
	350	361	362	351
	351	362	363	352
	352	363	364	353
	354	365	366	355
	355	366	367	356
	356	367	368	357
	357	368	369	358
	358	369	370	359
	359	370	371	360
	360	371	372	361
	361	372	373	362
	362	373	374	363
	363	374	375	364
	365	376	377	366
	366	377	378	367
	367	378	379	368
	368	379	380	369
	369	380	381	370
	370	381	382	371
	371	382	383	372
	372	383	384	373
	373	384	385	374
	374	385	386	375
	376	387	388	377
	377	388	389	378
	378	389	390	379
	379	390	391	380
	380	391	392	381
	381	392	393	382
	382	393	394	383
	383	394	395	384
	384	395	396	385
	385	396	397	386
	387	398	399	388
	388	399	400	389
	389	400	401	390
	390	401	402	391
	391	402	403	392
	392	403	404	393
	393	404	405	394
	394	405	406	395
	395	406	407	396
	396	407	408	397
	398	409	410	399
	399	410	411	400
	400	411	412	401
	401	412	413	402
	402	413	414	403
	403	414	415	404
	404	415	416	405
	405	416	417	406
	406	417	418	407
	407	418	419	408
	409	420	421	410
	410	421	422	411
	411	422	423	412
	412	423	424	413
	413	424	425	414
	414	425	426	415
	415	426	427	416
	416	427	428	417
	417	428	429	418
	418	429	430	419
	420	431	432	421
	421	432	433	422
	422	433	434	423
	423	434	435	424
	424	435	436	425
	425	436	437	426
	426	437	438	427
	427	438	439	428
	428	439	440	429
	429	440	441	430
	431	442	443	432
	432	443	444	433
	433	444	445	434
	434	445	446	435
	435	446	447	436
	436	447	448	437
	437	448	449	438
	438	449	450	439
	439	450	451	440
	440	451	452	441
	442	453	454	443
	443	454	455	444
	444	455	456	445
	445	456	457	446
	446	457	458	447
	447	458	459	448
	448	459	460	449
	449	460	461	450
	450	461	462	451
	451	462	463	452
	453	464	465	454
	454	465	466	455
	455	466	467	456
	456	467	468	457
	457	468	469	458
	458	469	470	459
	459	470	471	460
	460	471	472	461
	461	472	473	462
	462	473	474	463
	464	475	476	465
	465	476	477	466
	466	477	478	467
	467	478	479	468
	468	479	480	469
	469	480	481	470
	470	481	482	471
	471	482	483	472
	472	483	484	473
	473	484	485	474
	475	486	487	476
	476	487	488	477
	477	488	489	478
	478	489	490	479
	479	490	491	480
	480	491	492	481
	481	492	493	482
	482	493	494	483
	483	494	495	484
	484	495	496	485
	486	497	498	487
	487	498	499	488
	488	499	500	489
	489	500	501	490
	490	501	502	491
	491	502	503	492
	492	503	504	493
	493	504	505	494
	494	505	506	495
	495	506	507	496
	497	508	509	498
	498	509	510	499
	499	510	511	500
	500	511	512	501
	501	512	513	502
	502	513	514	503
	503	514	515	504
	504	515	516	505
	505	516	517	506
	506	517	518	507
	508	519	520	509
	509	520	521	510
	510	521	522	511
	511	522	523	512
	512	523	524	513
	513	524	525	514
	514	525	526	515
	515	526	527	516
	516	527	528	517
	517	528	529	518
	519	530	531	520
	520	531	532	521
	521	532	533	522
	522	533	534	523
	523	534	535	524
	524	535	536	525
	525	536	537	526
	526	537	538	527
	527	538	539	528
	528	539	540	529
	530	541	542	531
	531	542	543	532
	532	543	544	533
	533	544	545	534
	534	545	546	535
	535	546	547	536
	536	547	548	537
	537	548	549	538
	538	549	550	539
	539	550	551	540
