VARIABLES=X,Y
ZONE N=1111, E=1000, F=FEPOINT, ET=QUADRILATERAL
	0	0
	2.84847e-020	0.01
	-3.51956e-019	0.02
	-1.14314e-019	0.03
	-3.80932e-020	0.04
	-3.78434e-020	0.05
	-1.90219e-020	0.06
	-1.04605e-019	0.07
	-8.54916e-020	0.08
	2.37914e-019	0.09
	0	0.1
	0.01	-4.88671e-019
	0.01	0.01
	0.01	0.02
	0.01	0.03
	0.01	0.04
	0.01	0.05
	0.01	0.06
	0.01	0.07
	0.01	0.08
	0.01	0.09
	0.01	0.1
	0.02	-4.95227e-019
	0.02	0.01
	0.02	0.02
	0.02	0.03
	0.02	0.04
	0.02	0.05
	0.02	0.06
	0.02	0.07
	0.02	0.08
	0.02	0.09
	0.02	0.1
	0.03	-6.08179e-019
	0.03	0.01
	0.03	0.02
	0.03	0.03
	0.03	0.04
	0.03	0.05
	0.03	0.06
	0.03	0.07
	0.03	0.08
	0.03	0.09
	0.03	0.1
	0.04	-4.41626e-019
	0.04	0.01
	0.04	0.02
	0.04	0.03
	0.04	0.04
	0.04	0.05
	0.04	0.06
	0.04	0.07
	0.04	0.08
	0.04	0.09
	0.04	0.1
	0.05	-6.38123e-019
	0.05	0.01
	0.05	0.02
	0.05	0.03
	0.05	0.04
	0.05	0.05
	0.05	0.06
	0.05	0.07
	0.05	0.08
	0.05	0.09
	0.05	0.1
	0.0600001	8.53969e-019
	0.0600001	0.01
	0.0600001	0.02
	0.0600001	0.03
	0.0600001	0.04
	0.0600001	0.05
	0.0600001	0.06
	0.0600001	0.07
	0.0600001	0.08
	0.0600001	0.09
	0.0600001	0.1
	0.0700001	1.53233e-019
	0.0700001	0.01
	0.0700001	0.02
	0.0700001	0.03
	0.0700001	0.04
	0.0700001	0.05
	0.0700001	0.06
	0.0700001	0.07
	0.0700001	0.08
	0.0700001	0.09
	0.0700001	0.1
	0.0800003	-2.44044e-019
	0.0800003	0.01
	0.0800003	0.02
	0.0800003	0.03
	0.0800003	0.04
	0.0800003	0.05
	0.0800003	0.06
	0.0800003	0.07
	0.0800003	0.08
	0.0800003	0.09
	0.0800003	0.1
	0.0900007	5.63392e-019
	0.0900007	0.01
	0.0900007	0.02
	0.0900007	0.03
	0.0900007	0.04
	0.0900007	0.05
	0.0900007	0.06
	0.0900007	0.07
	0.0900007	0.08
	0.0900007	0.09
	0.0900007	0.1
	0.100001	-5.19508e-019
	0.100001	0.01
	0.100001	0.02
	0.100001	0.03
	0.100001	0.04
	0.100001	0.05
	0.100001	0.06
	0.100001	0.07
	0.100001	0.08
	0.100001	0.09
	0.100001	0.1
	0.110003	-7.75613e-019
	0.110003	0.01
	0.110003	0.02
	0.110003	0.03
	0.110003	0.04
	0.110003	0.05
	0.110003	0.06
	0.110003	0.07
	0.110003	0.08
	0.110003	0.09
	0.110003	0.1
	0.120006	7.08083e-019
	0.120006	0.01
	0.120006	0.02
	0.120006	0.03
	0.120006	0.04
	0.120006	0.05
	0.120006	0.06
	0.120006	0.07
	0.120006	0.08
	0.120006	0.09
	0.120006	0.1
	0.130012	-2.596e-019
	0.130012	0.01
	0.130012	0.02
	0.130012	0.03
	0.130012	0.04
	0.130012	0.05
	0.130012	0.06
	0.130012	0.07
	0.130012	0.08
	0.130012	0.09
	0.130012	0.1
	0.140021	-2.64137e-019
	0.140021	0.01
	0.140021	0.02
	0.140021	0.03
	0.140021	0.04
	0.140021	0.05
	0.140021	0.06
	0.140021	0.07
	0.140021	0.08
	0.140021	0.09
	0.140021	0.1
	0.150039	6.16318e-019
	0.150039	0.01
	0.150039	0.02
	0.150039	0.03
	0.150039	0.04
	0.150039	0.05
	0.150039	0.06
	0.150039	0.07
	0.150039	0.08
	0.150039	0.09
	0.150039	0.1
	0.160067	5.48785e-019
	0.160067	0.01
	0.160067	0.02
	0.160067	0.03
	0.160067	0.04
	0.160067	0.05
	0.160067	0.06
	0.160067	0.07
	0.160067	0.08
	0.160067	0.09
	0.160067	0.1
	0.170113	-1.00047e-018
	0.170113	0.01
	0.170113	0.02
	0.170113	0.03
	0.170113	0.04
	0.170113	0.05
	0.170113	0.06
	0.170113	0.07
	0.170113	0.08
	0.170113	0.09
	0.170113	0.1
	0.180186	2.12964e-019
	0.180186	0.01
	0.180186	0.02
	0.180186	0.03
	0.180186	0.04
	0.180186	0.05
	0.180186	0.06
	0.180186	0.07
	0.180186	0.08
	0.180186	0.09
	0.180186	0.1
	0.190296	1.0725e-018
	0.190296	0.01
	0.190296	0.02
	0.190296	0.03
	0.190296	0.04
	0.190296	0.05
	0.190296	0.06
	0.190296	0.07
	0.190296	0.08
	0.190296	0.09
	0.190296	0.1
	0.200457	-1.43611e-018
	0.200457	0.01
	0.200457	0.02
	0.200457	0.03
	0.200457	0.04
	0.200457	0.05
	0.200457	0.06
	0.200457	0.07
	0.200457	0.08
	0.200457	0.09
	0.200457	0.1
	0.210688	2.06224e-018
	0.210688	0.01
	0.210688	0.02
	0.210688	0.03
	0.210688	0.04
	0.210688	0.05
	0.210688	0.06
	0.210688	0.07
	0.210688	0.08
	0.210688	0.09
	0.210688	0.1
	0.221007	-1.10756e-018
	0.221007	0.01
	0.221007	0.02
	0.221007	0.03
	0.221007	0.04
	0.221007	0.05
	0.221007	0.06
	0.221007	0.07
	0.221007	0.08
	0.221007	0.09
	0.221007	0.1
	0.231438	1.40433e-019
	0.231438	0.01
	0.231438	0.02
	0.231438	0.03
	0.231438	0.04
	0.231438	0.05
	0.231438	0.06
	0.231438	0.07
	0.231438	0.08
	0.231438	0.09
	0.231438	0.1
	0.242007	1.55675e-018
	0.242007	0.01
	0.242007	0.02
	0.242007	0.03
	0.242007	0.04
	0.242007	0.05
	0.242007	0.06
	0.242007	0.07
	0.242007	0.08
	0.242007	0.09
	0.242007	0.1
	0.25274	-7.88668e-019
	0.25274	0.01
	0.25274	0.02
	0.25274	0.03
	0.25274	0.04
	0.25274	0.05
	0.25274	0.06
	0.25274	0.07
	0.25274	0.08
	0.25274	0.09
	0.25274	0.1
	0.263669	3.34813e-019
	0.263669	0.01
	0.263669	0.02
	0.263669	0.03
	0.263669	0.04
	0.263669	0.05
	0.263669	0.06
	0.263669	0.07
	0.263669	0.08
	0.263669	0.09
	0.263669	0.1
	0.274823	-1.14132e-018
	0.274823	0.01
	0.274823	0.02
	0.274823	0.03
	0.274823	0.04
	0.274823	0.05
	0.274823	0.06
	0.274823	0.07
	0.274823	0.08
	0.274823	0.09
	0.274823	0.1
	0.286236	-1.53964e-018
	0.286236	0.01
	0.286236	0.02
	0.286236	0.03
	0.286236	0.04
	0.286236	0.05
	0.286236	0.06
	0.286236	0.07
	0.286236	0.08
	0.286236	0.09
	0.286236	0.1
	0.297944	-2.71177e-019
	0.297944	0.01
	0.297944	0.02
	0.297944	0.03
	0.297944	0.04
	0.297944	0.05
	0.297944	0.06
	0.297944	0.07
	0.297944	0.08
	0.297944	0.09
	0.297944	0.1
	0.309982	-9.91543e-019
	0.309982	0.01
	0.309982	0.02
	0.309982	0.03
	0.309982	0.04
	0.309982	0.05
	0.309982	0.06
	0.309982	0.07
	0.309982	0.08
	0.309982	0.09
	0.309982	0.1
	0.322391	-3.28799e-019
	0.322391	0.01
	0.322391	0.02
	0.322391	0.03
	0.322391	0.04
	0.322391	0.05
	0.322391	0.06
	0.322391	0.07
	0.322391	0.08
	0.322391	0.09
	0.322391	0.1
	0.335212	1.03661e-018
	0.335212	0.01
	0.335212	0.02
	0.335212	0.03
	0.335212	0.04
	0.335212	0.05
	0.335212	0.06
	0.335212	0.07
	0.335212	0.08
	0.335212	0.09
	0.335212	0.1
	0.34849	1.30101e-018
	0.34849	0.01
	0.34849	0.02
	0.34849	0.03
	0.34849	0.04
	0.34849	0.05
	0.34849	0.06
	0.34849	0.07
	0.34849	0.08
	0.34849	0.09
	0.34849	0.1
	0.362274	5.4104e-020
	0.362274	0.01
	0.362274	0.02
	0.362274	0.03
	0.362274	0.04
	0.362274	0.05
	0.362274	0.06
	0.362274	0.07
	0.362274	0.08
	0.362274	0.09
	0.362274	0.1
	0.376615	-6.19402e-019
	0.376615	0.01
	0.376615	0.02
	0.376615	0.03
	0.376615	0.04
	0.376615	0.05
	0.376615	0.06
	0.376615	0.07
	0.376615	0.08
	0.376615	0.09
	0.376615	0.1
	0.391571	-7.82949e-019
	0.391571	0.01
	0.391571	0.02
	0.391571	0.03
	0.391571	0.04
	0.391571	0.05
	0.391571	0.06
	0.391571	0.07
	0.391571	0.08
	0.391571	0.09
	0.391571	0.1
	0.407199	-1.01252e-018
	0.407199	0.01
	0.407199	0.02
	0.407199	0.03
	0.407199	0.04
	0.407199	0.05
	0.407199	0.06
	0.407199	0.07
	0.407199	0.08
	0.407199	0.09
	0.407199	0.1
	0.423563	-1.42789e-018
	0.423563	0.01
	0.423563	0.02
	0.423563	0.03
	0.423563	0.04
	0.423563	0.05
	0.423563	0.06
	0.423563	0.07
	0.423563	0.08
	0.423563	0.09
	0.423563	0.1
	0.440722	-1.39571e-018
	0.440722	0.01
	0.440722	0.02
	0.440722	0.03
	0.440722	0.04
	0.440722	0.05
	0.440722	0.06
	0.440722	0.07
	0.440722	0.08
	0.440722	0.09
	0.440722	0.1
	0.458733	-1.44718e-019
	0.458733	0.01
	0.458733	0.02
	0.458733	0.03
	0.458733	0.04
	0.458733	0.05
	0.458733	0.06
	0.458733	0.07
	0.458733	0.08
	0.458733	0.09
	0.458733	0.1
	0.477642	8.55893e-019
	0.477642	0.01
	0.477642	0.02
	0.477642	0.03
	0.477642	0.04
	0.477642	0.05
	0.477642	0.06
	0.477642	0.07
	0.477642	0.08
	0.477642	0.09
	0.477642	0.1
	0.49747	-1.86194e-019
	0.49747	0.01
	0.49747	0.02
	0.49747	0.03
	0.49747	0.04
	0.49747	0.05
	0.49747	0.06
	0.49747	0.07
	0.49747	0.08
	0.49747	0.09
	0.49747	0.1
	0.518204	-2.64038e-019
	0.518204	0.01
	0.518204	0.02
	0.518204	0.03
	0.518204	0.04
	0.518204	0.05
	0.518204	0.06
	0.518204	0.07
	0.518204	0.08
	0.518204	0.09
	0.518204	0.1
	0.539779	-3.11349e-019
	0.539779	0.01
	0.539779	0.02
	0.539779	0.03
	0.539779	0.04
	0.539779	0.05
	0.539779	0.06
	0.539779	0.07
	0.539779	0.08
	0.539779	0.09
	0.539779	0.1
	0.562077	-3.41249e-019
	0.562077	0.01
	0.562077	0.02
	0.562077	0.03
	0.562077	0.04
	0.562077	0.05
	0.562077	0.06
	0.562077	0.07
	0.562077	0.08
	0.562077	0.09
	0.562077	0.1
	0.584942	4.7443e-019
	0.584942	0.01
	0.584942	0.02
	0.584942	0.03
	0.584942	0.04
	0.584942	0.05
	0.584942	0.06
	0.584942	0.07
	0.584942	0.08
	0.584942	0.09
	0.584942	0.1
	0.608221	-5.90164e-019
	0.608221	0.01
	0.608221	0.02
	0.608221	0.03
	0.608221	0.04
	0.608221	0.05
	0.608221	0.06
	0.608221	0.07
	0.608221	0.08
	0.608221	0.09
	0.608221	0.1
	0.631827	-2.41654e-019
	0.631827	0.01
	0.631827	0.02
	0.631827	0.03
	0.631827	0.04
	0.631827	0.05
	0.631827	0.06
	0.631827	0.07
	0.631827	0.08
	0.631827	0.09
	0.631827	0.1
	0.655848	-2.27849e-018
	0.655848	0.01
	0.655848	0.02
	0.655848	0.03
	0.655848	0.04
	0.655848	0.05
	0.655848	0.06
	0.655848	0.07
	0.655848	0.08
	0.655848	0.09
	0.655848	0.1
	0.681425	-1.82117e-018
	0.681425	0.01
	0.681425	0.02
	0.681425	0.03
	0.681425	0.04
	0.681425	0.05
	0.681425	0.06
	0.681425	0.07
	0.681425	0.08
	0.681425	0.09
	0.681425	0.1
	0.687057	-1.36902e-018
	0.687057	0.01
	0.687057	0.02
	0.687057	0.03
	0.687057	0.04
	0.687057	0.05
	0.687057	0.06
	0.687057	0.07
	0.687057	0.08
	0.687057	0.09
	0.687057	0.1
	0.692502	-9.32443e-019
	0.692502	0.01
	0.692502	0.02
	0.692502	0.03
	0.692502	0.04
	0.692502	0.05
	0.692502	0.06
	0.692502	0.07
	0.692502	0.08
	0.692502	0.09
	0.692502	0.1
	0.697883	-9.21739e-018
	0.697883	0.01
	0.697883	0.02
	0.697883	0.03
	0.697883	0.04
	0.697883	0.05
	0.697883	0.06
	0.697883	0.07
	0.697883	0.08
	0.697883	0.09
	0.697883	0.1
	0.703232	-9.6157e-019
	0.703232	0.01
	0.703232	0.02
	0.703232	0.03
	0.703232	0.04
	0.703232	0.05
	0.703232	0.06
	0.703232	0.07
	0.703232	0.08
	0.703232	0.09
	0.703232	0.1
	0.708562	6.60277e-018
	0.708562	0.01
	0.708562	0.02
	0.708562	0.03
	0.708562	0.04
	0.708562	0.05
	0.708562	0.06
	0.708562	0.07
	0.708562	0.08
	0.708562	0.09
	0.708562	0.1
	0.71388	-4.08084e-018
	0.71388	0.01
	0.71388	0.02
	0.71388	0.03
	0.71388	0.04
	0.71388	0.05
	0.71388	0.06
	0.71388	0.07
	0.71388	0.08
	0.71388	0.09
	0.71388	0.1
	0.719189	-7.25067e-018
	0.719189	0.01
	0.719189	0.02
	0.719189	0.03
	0.719189	0.04
	0.719189	0.05
	0.719189	0.06
	0.719189	0.07
	0.719189	0.08
	0.719189	0.09
	0.719189	0.1
	0.724491	-6.42838e-018
	0.724491	0.01
	0.724491	0.02
	0.724491	0.03
	0.724491	0.04
	0.724491	0.05
	0.724491	0.06
	0.724491	0.07
	0.724491	0.08
	0.724491	0.09
	0.724491	0.1
	0.729787	-8.16114e-018
	0.729787	0.01
	0.729787	0.02
	0.729787	0.03
	0.729787	0.04
	0.729787	0.05
	0.729787	0.06
	0.729787	0.07
	0.729787	0.08
	0.729787	0.09
	0.729787	0.1
	0.735079	5.81032e-018
	0.735079	0.01
	0.735079	0.02
	0.735079	0.03
	0.735079	0.04
	0.735079	0.05
	0.735079	0.06
	0.735079	0.07
	0.735079	0.08
	0.735079	0.09
	0.735079	0.1
	0.740367	1.84108e-018
	0.740367	0.01
	0.740367	0.02
	0.740367	0.03
	0.740367	0.04
	0.740367	0.05
	0.740367	0.06
	0.740367	0.07
	0.740367	0.08
	0.740367	0.09
	0.740367	0.1
	0.745652	-1.72451e-017
	0.745652	0.01
	0.745652	0.02
	0.745652	0.03
	0.745652	0.04
	0.745652	0.05
	0.745652	0.06
	0.745652	0.07
	0.745652	0.08
	0.745652	0.09
	0.745652	0.1
	0.750934	4.16531e-018
	0.750934	0.01
	0.750934	0.02
	0.750934	0.03
	0.750934	0.04
	0.750934	0.05
	0.750934	0.06
	0.750934	0.07
	0.750934	0.08
	0.750934	0.09
	0.750934	0.1
	0.756213	-3.41914e-019
	0.756213	0.01
	0.756213	0.02
	0.756213	0.03
	0.756213	0.04
	0.756213	0.05
	0.756213	0.06
	0.756213	0.07
	0.756213	0.08
	0.756213	0.09
	0.756213	0.1
	0.761491	-5.4091e-018
	0.761491	0.01
	0.761491	0.02
	0.761491	0.03
	0.761491	0.04
	0.761491	0.05
	0.761491	0.06
	0.761491	0.07
	0.761491	0.08
	0.761491	0.09
	0.761491	0.1
	0.766767	4.40973e-019
	0.766767	0.01
	0.766767	0.02
	0.766767	0.03
	0.766767	0.04
	0.766767	0.05
	0.766767	0.06
	0.766767	0.07
	0.766767	0.08
	0.766767	0.09
	0.766767	0.1
	0.772041	-1.15298e-018
	0.772041	0.01
	0.772041	0.02
	0.772041	0.03
	0.772041	0.04
	0.772041	0.05
	0.772041	0.06
	0.772041	0.07
	0.772041	0.08
	0.772041	0.09
	0.772041	0.1
	0.777313	-4.79384e-018
	0.777313	0.01
	0.777313	0.02
	0.777313	0.03
	0.777313	0.04
	0.777313	0.05
	0.777313	0.06
	0.777313	0.07
	0.777313	0.08
	0.777313	0.09
	0.777313	0.1
	0.782585	-6.96655e-018
	0.782585	0.01
	0.782585	0.02
	0.782585	0.03
	0.782585	0.04
	0.782585	0.05
	0.782585	0.06
	0.782585	0.07
	0.782585	0.08
	0.782585	0.09
	0.782585	0.1
	0.787855	-3.59802e-018
	0.787855	0.01
	0.787855	0.02
	0.787855	0.03
	0.787855	0.04
	0.787855	0.05
	0.787855	0.06
	0.787855	0.07
	0.787855	0.08
	0.787855	0.09
	0.787855	0.1
	0.793124	2.51083e-018
	0.793124	0.01
	0.793124	0.02
	0.793124	0.03
	0.793124	0.04
	0.793124	0.05
	0.793124	0.06
	0.793124	0.07
	0.793124	0.08
	0.793124	0.09
	0.793124	0.1
	0.798391	-4.6428e-018
	0.798391	0.01
	0.798391	0.02
	0.798391	0.03
	0.798391	0.04
	0.798391	0.05
	0.798391	0.06
	0.798391	0.07
	0.798391	0.08
	0.798391	0.09
	0.798391	0.1
	0.803658	-6.50878e-018
	0.803658	0.01
	0.803658	0.02
	0.803658	0.03
	0.803658	0.04
	0.803658	0.05
	0.803658	0.06
	0.803658	0.07
	0.803658	0.08
	0.803658	0.09
	0.803658	0.1
	0.808924	-4.53047e-018
	0.808924	0.01
	0.808924	0.02
	0.808924	0.03
	0.808924	0.04
	0.808924	0.05
	0.808924	0.06
	0.808924	0.07
	0.808924	0.08
	0.808924	0.09
	0.808924	0.1
	0.814188	-2.17923e-018
	0.814188	0.01
	0.814188	0.02
	0.814188	0.03
	0.814188	0.04
	0.814188	0.05
	0.814188	0.06
	0.814188	0.07
	0.814188	0.08
	0.814188	0.09
	0.814188	0.1
	0.819452	-3.56673e-018
	0.819452	0.01
	0.819452	0.02
	0.819452	0.03
	0.819452	0.04
	0.819452	0.05
	0.819452	0.06
	0.819452	0.07
	0.819452	0.08
	0.819452	0.09
	0.819452	0.1
	0.824714	-7.30776e-018
	0.824714	0.01
	0.824714	0.02
	0.824714	0.03
	0.824714	0.04
	0.824714	0.05
	0.824714	0.06
	0.824714	0.07
	0.824714	0.08
	0.824714	0.09
	0.824714	0.1
	0.829975	-3.45837e-018
	0.829975	0.01
	0.829975	0.02
	0.829975	0.03
	0.829975	0.04
	0.829975	0.05
	0.829975	0.06
	0.829975	0.07
	0.829975	0.08
	0.829975	0.09
	0.829975	0.1
	0.835236	-7.58424e-018
	0.835236	0.01
	0.835236	0.02
	0.835236	0.03
	0.835236	0.04
	0.835236	0.05
	0.835236	0.06
	0.835236	0.07
	0.835236	0.08
	0.835236	0.09
	0.835236	0.1
	0.840495	-6.9186e-018
	0.840495	0.01
	0.840495	0.02
	0.840495	0.03
	0.840495	0.04
	0.840495	0.05
	0.840495	0.06
	0.840495	0.07
	0.840495	0.08
	0.840495	0.09
	0.840495	0.1
	0.845753	-4.24902e-018
	0.845753	0.01
	0.845753	0.02
	0.845753	0.03
	0.845753	0.04
	0.845753	0.05
	0.845753	0.06
	0.845753	0.07
	0.845753	0.08
	0.845753	0.09
	0.845753	0.1
	0.851011	-8.80334e-018
	0.851011	0.01
	0.851011	0.02
	0.851011	0.03
	0.851011	0.04
	0.851011	0.05
	0.851011	0.06
	0.851011	0.07
	0.851011	0.08
	0.851011	0.09
	0.851011	0.1
	0.856271	-4.37281e-018
	0.856271	0.01
	0.856271	0.02
	0.856271	0.03
	0.856271	0.04
	0.856271	0.05
	0.856271	0.06
	0.856271	0.07
	0.856271	0.08
	0.856271	0.09
	0.856271	0.1
	0.861541	-6.05185e-018
	0.861541	0.01
	0.861541	0.02
	0.861541	0.03
	0.861541	0.04
	0.861541	0.05
	0.861541	0.06
	0.861541	0.07
	0.861541	0.08
	0.861541	0.09
	0.861541	0.1
	0.866844	-7.80571e-018
	0.866844	0.01
	0.866844	0.02
	0.866844	0.03
	0.866844	0.04
	0.866844	0.05
	0.866844	0.06
	0.866844	0.07
	0.866844	0.08
	0.866844	0.09
	0.866844	0.1
	0.872252	-5.97938e-018
	0.872252	0.01
	0.872252	0.02
	0.872252	0.03
	0.872252	0.04
	0.872252	0.05
	0.872252	0.06
	0.872252	0.07
	0.872252	0.08
	0.872252	0.09
	0.872252	0.1
	0.87796	-4.80012e-018
	0.87796	0.01
	0.87796	0.02
	0.87796	0.03
	0.87796	0.04
	0.87796	0.05
	0.87796	0.06
	0.87796	0.07
	0.87796	0.08
	0.87796	0.09
	0.87796	0.1
	0.884359	-6.51352e-018
	0.884359	0.01
	0.884359	0.02
	0.884359	0.03
	0.884359	0.04
	0.884359	0.05
	0.884359	0.06
	0.884359	0.07
	0.884359	0.08
	0.884359	0.09
	0.884359	0.1
	0.891918	-5.53434e-018
	0.891918	0.01
	0.891918	0.02
	0.891918	0.03
	0.891918	0.04
	0.891918	0.05
	0.891918	0.06
	0.891918	0.07
	0.891918	0.08
	0.891918	0.09
	0.891918	0.1
	0.900699	-7.32845e-018
	0.900699	0.01
	0.900699	0.02
	0.900699	0.03
	0.900699	0.04
	0.900699	0.05
	0.900699	0.06
	0.900699	0.07
	0.900699	0.08
	0.900699	0.09
	0.900699	0.1
	0.910229	-8.11182e-018
	0.910229	0.01
	0.910229	0.02
	0.910229	0.03
	0.910229	0.04
	0.910229	0.05
	0.910229	0.06
	0.910229	0.07
	0.910229	0.08
	0.910229	0.09
	0.910229	0.1
	0.920072	-6.33799e-018
	0.920072	0.01
	0.920072	0.02
	0.920072	0.03
	0.920072	0.04
	0.920072	0.05
	0.920072	0.06
	0.920072	0.07
	0.920072	0.08
	0.920072	0.09
	0.920072	0.1
	0.930022	-9.17628e-018
	0.930022	0.01
	0.930022	0.02
	0.930022	0.03
	0.930022	0.04
	0.930022	0.05
	0.930022	0.06
	0.930022	0.07
	0.930022	0.08
	0.930022	0.09
	0.930022	0.1
	0.940007	-5.92103e-018
	0.940007	0.01
	0.940007	0.02
	0.940007	0.03
	0.940007	0.04
	0.940007	0.05
	0.940007	0.06
	0.940007	0.07
	0.940007	0.08
	0.940007	0.09
	0.940007	0.1
	0.950002	-8.49383e-018
	0.950002	0.01
	0.950002	0.02
	0.950002	0.03
	0.950002	0.04
	0.950002	0.05
	0.950002	0.06
	0.950002	0.07
	0.950002	0.08
	0.950002	0.09
	0.950002	0.1
	0.960001	-7.27511e-018
	0.960001	0.01
	0.960001	0.02
	0.960001	0.03
	0.960001	0.04
	0.960001	0.05
	0.960001	0.06
	0.960001	0.07
	0.960001	0.08
	0.960001	0.09
	0.960001	0.1
	0.97	-8.6883e-018
	0.97	0.01
	0.97	0.02
	0.97	0.03
	0.97	0.04
	0.97	0.05
	0.97	0.06
	0.97	0.07
	0.97	0.08
	0.97	0.09
	0.97	0.1
	0.98	-9.32778e-018
	0.98	0.01
	0.98	0.02
	0.98	0.03
	0.98	0.04
	0.98	0.05
	0.98	0.06
	0.98	0.07
	0.98	0.08
	0.98	0.09
	0.98	0.1
	0.99	-8.58728e-018
	0.99	0.01
	0.99	0.02
	0.99	0.03
	0.99	0.04
	0.99	0.05
	0.99	0.06
	0.99	0.07
	0.99	0.08
	0.99	0.09
	0.99	0.1
	1	0
	1	0.01
	1	0.02
	1	0.03
	1	0.04
	1	0.05
	1	0.06
	1	0.07
	1	0.08
	1	0.09
	1	0.1
	1	2	13	12
	2	3	14	13
	3	4	15	14
	4	5	16	15
	5	6	17	16
	6	7	18	17
	7	8	19	18
	8	9	20	19
	9	10	21	20
	10	11	22	21
	12	13	24	23
	13	14	25	24
	14	15	26	25
	15	16	27	26
	16	17	28	27
	17	18	29	28
	18	19	30	29
	19	20	31	30
	20	21	32	31
	21	22	33	32
	23	24	35	34
	24	25	36	35
	25	26	37	36
	26	27	38	37
	27	28	39	38
	28	29	40	39
	29	30	41	40
	30	31	42	41
	31	32	43	42
	32	33	44	43
	34	35	46	45
	35	36	47	46
	36	37	48	47
	37	38	49	48
	38	39	50	49
	39	40	51	50
	40	41	52	51
	41	42	53	52
	42	43	54	53
	43	44	55	54
	45	46	57	56
	46	47	58	57
	47	48	59	58
	48	49	60	59
	49	50	61	60
	50	51	62	61
	51	52	63	62
	52	53	64	63
	53	54	65	64
	54	55	66	65
	56	57	68	67
	57	58	69	68
	58	59	70	69
	59	60	71	70
	60	61	72	71
	61	62	73	72
	62	63	74	73
	63	64	75	74
	64	65	76	75
	65	66	77	76
	67	68	79	78
	68	69	80	79
	69	70	81	80
	70	71	82	81
	71	72	83	82
	72	73	84	83
	73	74	85	84
	74	75	86	85
	75	76	87	86
	76	77	88	87
	78	79	90	89
	79	80	91	90
	80	81	92	91
	81	82	93	92
	82	83	94	93
	83	84	95	94
	84	85	96	95
	85	86	97	96
	86	87	98	97
	87	88	99	98
	89	90	101	100
	90	91	102	101
	91	92	103	102
	92	93	104	103
	93	94	105	104
	94	95	106	105
	95	96	107	106
	96	97	108	107
	97	98	109	108
	98	99	110	109
	100	101	112	111
	101	102	113	112
	102	103	114	113
	103	104	115	114
	104	105	116	115
	105	106	117	116
	106	107	118	117
	107	108	119	118
	108	109	120	119
	109	110	121	120
	111	112	123	122
	112	113	124	123
	113	114	125	124
	114	115	126	125
	115	116	127	126
	116	117	128	127
	117	118	129	128
	118	119	130	129
	119	120	131	130
	120	121	132	131
	122	123	134	133
	123	124	135	134
	124	125	136	135
	125	126	137	136
	126	127	138	137
	127	128	139	138
	128	129	140	139
	129	130	141	140
	130	131	142	141
	131	132	143	142
	133	134	145	144
	134	135	146	145
	135	136	147	146
	136	137	148	147
	137	138	149	148
	138	139	150	149
	139	140	151	150
	140	141	152	151
	141	142	153	152
	142	143	154	153
	144	145	156	155
	145	146	157	156
	146	147	158	157
	147	148	159	158
	148	149	160	159
	149	150	161	160
	150	151	162	161
	151	152	163	162
	152	153	164	163
	153	154	165	164
	155	156	167	166
	156	157	168	167
	157	158	169	168
	158	159	170	169
	159	160	171	170
	160	161	172	171
	161	162	173	172
	162	163	174	173
	163	164	175	174
	164	165	176	175
	166	167	178	177
	167	168	179	178
	168	169	180	179
	169	170	181	180
	170	171	182	181
	171	172	183	182
	172	173	184	183
	173	174	185	184
	174	175	186	185
	175	176	187	186
	177	178	189	188
	178	179	190	189
	179	180	191	190
	180	181	192	191
	181	182	193	192
	182	183	194	193
	183	184	195	194
	184	185	196	195
	185	186	197	196
	186	187	198	197
	188	189	200	199
	189	190	201	200
	190	191	202	201
	191	192	203	202
	192	193	204	203
	193	194	205	204
	194	195	206	205
	195	196	207	206
	196	197	208	207
	197	198	209	208
	199	200	211	210
	200	201	212	211
	201	202	213	212
	202	203	214	213
	203	204	215	214
	204	205	216	215
	205	206	217	216
	206	207	218	217
	207	208	219	218
	208	209	220	219
	210	211	222	221
	211	212	223	222
	212	213	224	223
	213	214	225	224
	214	215	226	225
	215	216	227	226
	216	217	228	227
	217	218	229	228
	218	219	230	229
	219	220	231	230
	221	222	233	232
	222	223	234	233
	223	224	235	234
	224	225	236	235
	225	226	237	236
	226	227	238	237
	227	228	239	238
	228	229	240	239
	229	230	241	240
	230	231	242	241
	232	233	244	243
	233	234	245	244
	234	235	246	245
	235	236	247	246
	236	237	248	247
	237	238	249	248
	238	239	250	249
	239	240	251	250
	240	241	252	251
	241	242	253	252
	243	244	255	254
	244	245	256	255
	245	246	257	256
	246	247	258	257
	247	248	259	258
	248	249	260	259
	249	250	261	260
	250	251	262	261
	251	252	263	262
	252	253	264	263
	254	255	266	265
	255	256	267	266
	256	257	268	267
	257	258	269	268
	258	259	270	269
	259	260	271	270
	260	261	272	271
	261	262	273	272
	262	263	274	273
	263	264	275	274
	265	266	277	276
	266	267	278	277
	267	268	279	278
	268	269	280	279
	269	270	281	280
	270	271	282	281
	271	272	283	282
	272	273	284	283
	273	274	285	284
	274	275	286	285
	276	277	288	287
	277	278	289	288
	278	279	290	289
	279	280	291	290
	280	281	292	291
	281	282	293	292
	282	283	294	293
	283	284	295	294
	284	285	296	295
	285	286	297	296
	287	288	299	298
	288	289	300	299
	289	290	301	300
	290	291	302	301
	291	292	303	302
	292	293	304	303
	293	294	305	304
	294	295	306	305
	295	296	307	306
	296	297	308	307
	298	299	310	309
	299	300	311	310
	300	301	312	311
	301	302	313	312
	302	303	314	313
	303	304	315	314
	304	305	316	315
	305	306	317	316
	306	307	318	317
	307	308	319	318
	309	310	321	320
	310	311	322	321
	311	312	323	322
	312	313	324	323
	313	314	325	324
	314	315	326	325
	315	316	327	326
	316	317	328	327
	317	318	329	328
	318	319	330	329
	320	321	332	331
	321	322	333	332
	322	323	334	333
	323	324	335	334
	324	325	336	335
	325	326	337	336
	326	327	338	337
	327	328	339	338
	328	329	340	339
	329	330	341	340
	331	332	343	342
	332	333	344	343
	333	334	345	344
	334	335	346	345
	335	336	347	346
	336	337	348	347
	337	338	349	348
	338	339	350	349
	339	340	351	350
	340	341	352	351
	342	343	354	353
	343	344	355	354
	344	345	356	355
	345	346	357	356
	346	347	358	357
	347	348	359	358
	348	349	360	359
	349	350	361	360
	350	351	362	361
	351	352	363	362
	353	354	365	364
	354	355	366	365
	355	356	367	366
	356	357	368	367
	357	358	369	368
	358	359	370	369
	359	360	371	370
	360	361	372	371
	361	362	373	372
	362	363	374	373
	364	365	376	375
	365	366	377	376
	366	367	378	377
	367	368	379	378
	368	369	380	379
	369	370	381	380
	370	371	382	381
	371	372	383	382
	372	373	384	383
	373	374	385	384
	375	376	387	386
	376	377	388	387
	377	378	389	388
	378	379	390	389
	379	380	391	390
	380	381	392	391
	381	382	393	392
	382	383	394	393
	383	384	395	394
	384	385	396	395
	386	387	398	397
	387	388	399	398
	388	389	400	399
	389	390	401	400
	390	391	402	401
	391	392	403	402
	392	393	404	403
	393	394	405	404
	394	395	406	405
	395	396	407	406
	397	398	409	408
	398	399	410	409
	399	400	411	410
	400	401	412	411
	401	402	413	412
	402	403	414	413
	403	404	415	414
	404	405	416	415
	405	406	417	416
	406	407	418	417
	408	409	420	419
	409	410	421	420
	410	411	422	421
	411	412	423	422
	412	413	424	423
	413	414	425	424
	414	415	426	425
	415	416	427	426
	416	417	428	427
	417	418	429	428
	419	420	431	430
	420	421	432	431
	421	422	433	432
	422	423	434	433
	423	424	435	434
	424	425	436	435
	425	426	437	436
	426	427	438	437
	427	428	439	438
	428	429	440	439
	430	431	442	441
	431	432	443	442
	432	433	444	443
	433	434	445	444
	434	435	446	445
	435	436	447	446
	436	437	448	447
	437	438	449	448
	438	439	450	449
	439	440	451	450
	441	442	453	452
	442	443	454	453
	443	444	455	454
	444	445	456	455
	445	446	457	456
	446	447	458	457
	447	448	459	458
	448	449	460	459
	449	450	461	460
	450	451	462	461
	452	453	464	463
	453	454	465	464
	454	455	466	465
	455	456	467	466
	456	457	468	467
	457	458	469	468
	458	459	470	469
	459	460	471	470
	460	461	472	471
	461	462	473	472
	463	464	475	474
	464	465	476	475
	465	466	477	476
	466	467	478	477
	467	468	479	478
	468	469	480	479
	469	470	481	480
	470	471	482	481
	471	472	483	482
	472	473	484	483
	474	475	486	485
	475	476	487	486
	476	477	488	487
	477	478	489	488
	478	479	490	489
	479	480	491	490
	480	481	492	491
	481	482	493	492
	482	483	494	493
	483	484	495	494
	485	486	497	496
	486	487	498	497
	487	488	499	498
	488	489	500	499
	489	490	501	500
	490	491	502	501
	491	492	503	502
	492	493	504	503
	493	494	505	504
	494	495	506	505
	496	497	508	507
	497	498	509	508
	498	499	510	509
	499	500	511	510
	500	501	512	511
	501	502	513	512
	502	503	514	513
	503	504	515	514
	504	505	516	515
	505	506	517	516
	507	508	519	518
	508	509	520	519
	509	510	521	520
	510	511	522	521
	511	512	523	522
	512	513	524	523
	513	514	525	524
	514	515	526	525
	515	516	527	526
	516	517	528	527
	518	519	530	529
	519	520	531	530
	520	521	532	531
	521	522	533	532
	522	523	534	533
	523	524	535	534
	524	525	536	535
	525	526	537	536
	526	527	538	537
	527	528	539	538
	529	530	541	540
	530	531	542	541
	531	532	543	542
	532	533	544	543
	533	534	545	544
	534	535	546	545
	535	536	547	546
	536	537	548	547
	537	538	549	548
	538	539	550	549
	540	541	552	551
	541	542	553	552
	542	543	554	553
	543	544	555	554
	544	545	556	555
	545	546	557	556
	546	547	558	557
	547	548	559	558
	548	549	560	559
	549	550	561	560
	551	552	563	562
	552	553	564	563
	553	554	565	564
	554	555	566	565
	555	556	567	566
	556	557	568	567
	557	558	569	568
	558	559	570	569
	559	560	571	570
	560	561	572	571
	562	563	574	573
	563	564	575	574
	564	565	576	575
	565	566	577	576
	566	567	578	577
	567	568	579	578
	568	569	580	579
	569	570	581	580
	570	571	582	581
	571	572	583	582
	573	574	585	584
	574	575	586	585
	575	576	587	586
	576	577	588	587
	577	578	589	588
	578	579	590	589
	579	580	591	590
	580	581	592	591
	581	582	593	592
	582	583	594	593
	584	585	596	595
	585	586	597	596
	586	587	598	597
	587	588	599	598
	588	589	600	599
	589	590	601	600
	590	591	602	601
	591	592	603	602
	592	593	604	603
	593	594	605	604
	595	596	607	606
	596	597	608	607
	597	598	609	608
	598	599	610	609
	599	600	611	610
	600	601	612	611
	601	602	613	612
	602	603	614	613
	603	604	615	614
	604	605	616	615
	606	607	618	617
	607	608	619	618
	608	609	620	619
	609	610	621	620
	610	611	622	621
	611	612	623	622
	612	613	624	623
	613	614	625	624
	614	615	626	625
	615	616	627	626
	617	618	629	628
	618	619	630	629
	619	620	631	630
	620	621	632	631
	621	622	633	632
	622	623	634	633
	623	624	635	634
	624	625	636	635
	625	626	637	636
	626	627	638	637
	628	629	640	639
	629	630	641	640
	630	631	642	641
	631	632	643	642
	632	633	644	643
	633	634	645	644
	634	635	646	645
	635	636	647	646
	636	637	648	647
	637	638	649	648
	639	640	651	650
	640	641	652	651
	641	642	653	652
	642	643	654	653
	643	644	655	654
	644	645	656	655
	645	646	657	656
	646	647	658	657
	647	648	659	658
	648	649	660	659
	650	651	662	661
	651	652	663	662
	652	653	664	663
	653	654	665	664
	654	655	666	665
	655	656	667	666
	656	657	668	667
	657	658	669	668
	658	659	670	669
	659	660	671	670
	661	662	673	672
	662	663	674	673
	663	664	675	674
	664	665	676	675
	665	666	677	676
	666	667	678	677
	667	668	679	678
	668	669	680	679
	669	670	681	680
	670	671	682	681
	672	673	684	683
	673	674	685	684
	674	675	686	685
	675	676	687	686
	676	677	688	687
	677	678	689	688
	678	679	690	689
	679	680	691	690
	680	681	692	691
	681	682	693	692
	683	684	695	694
	684	685	696	695
	685	686	697	696
	686	687	698	697
	687	688	699	698
	688	689	700	699
	689	690	701	700
	690	691	702	701
	691	692	703	702
	692	693	704	703
	694	695	706	705
	695	696	707	706
	696	697	708	707
	697	698	709	708
	698	699	710	709
	699	700	711	710
	700	701	712	711
	701	702	713	712
	702	703	714	713
	703	704	715	714
	705	706	717	716
	706	707	718	717
	707	708	719	718
	708	709	720	719
	709	710	721	720
	710	711	722	721
	711	712	723	722
	712	713	724	723
	713	714	725	724
	714	715	726	725
	716	717	728	727
	717	718	729	728
	718	719	730	729
	719	720	731	730
	720	721	732	731
	721	722	733	732
	722	723	734	733
	723	724	735	734
	724	725	736	735
	725	726	737	736
	727	728	739	738
	728	729	740	739
	729	730	741	740
	730	731	742	741
	731	732	743	742
	732	733	744	743
	733	734	745	744
	734	735	746	745
	735	736	747	746
	736	737	748	747
	738	739	750	749
	739	740	751	750
	740	741	752	751
	741	742	753	752
	742	743	754	753
	743	744	755	754
	744	745	756	755
	745	746	757	756
	746	747	758	757
	747	748	759	758
	749	750	761	760
	750	751	762	761
	751	752	763	762
	752	753	764	763
	753	754	765	764
	754	755	766	765
	755	756	767	766
	756	757	768	767
	757	758	769	768
	758	759	770	769
	760	761	772	771
	761	762	773	772
	762	763	774	773
	763	764	775	774
	764	765	776	775
	765	766	777	776
	766	767	778	777
	767	768	779	778
	768	769	780	779
	769	770	781	780
	771	772	783	782
	772	773	784	783
	773	774	785	784
	774	775	786	785
	775	776	787	786
	776	777	788	787
	777	778	789	788
	778	779	790	789
	779	780	791	790
	780	781	792	791
	782	783	794	793
	783	784	795	794
	784	785	796	795
	785	786	797	796
	786	787	798	797
	787	788	799	798
	788	789	800	799
	789	790	801	800
	790	791	802	801
	791	792	803	802
	793	794	805	804
	794	795	806	805
	795	796	807	806
	796	797	808	807
	797	798	809	808
	798	799	810	809
	799	800	811	810
	800	801	812	811
	801	802	813	812
	802	803	814	813
	804	805	816	815
	805	806	817	816
	806	807	818	817
	807	808	819	818
	808	809	820	819
	809	810	821	820
	810	811	822	821
	811	812	823	822
	812	813	824	823
	813	814	825	824
	815	816	827	826
	816	817	828	827
	817	818	829	828
	818	819	830	829
	819	820	831	830
	820	821	832	831
	821	822	833	832
	822	823	834	833
	823	824	835	834
	824	825	836	835
	826	827	838	837
	827	828	839	838
	828	829	840	839
	829	830	841	840
	830	831	842	841
	831	832	843	842
	832	833	844	843
	833	834	845	844
	834	835	846	845
	835	836	847	846
	837	838	849	848
	838	839	850	849
	839	840	851	850
	840	841	852	851
	841	842	853	852
	842	843	854	853
	843	844	855	854
	844	845	856	855
	845	846	857	856
	846	847	858	857
	848	849	860	859
	849	850	861	860
	850	851	862	861
	851	852	863	862
	852	853	864	863
	853	854	865	864
	854	855	866	865
	855	856	867	866
	856	857	868	867
	857	858	869	868
	859	860	871	870