VARIABLES=X,Y
ZONE N=1301, E=1250, F=FEPOINT, ET=QUADRILATERAL
	0	0
	0.216652	3.139e-018
	0.216225	0.0136037
	0.214944	0.0271537
	0.212815	0.0405966
	0.209846	0.0538792
	0.206049	0.0669492
	0.201438	0.079755
	0.196033	0.092246
	0.189854	0.104373
	0.182926	0.116088
	0.175275	0.127345
	0.166933	0.138099
	0.157933	0.148309
	0.148309	0.157933
	0.138099	0.166933
	0.127345	0.175275
	0.116088	0.182926
	0.104373	0.189854
	0.092246	0.196033
	0.079755	0.201438
	0.0669492	0.206049
	0.0538792	0.209846
	0.0405966	0.212815
	0.0271537	0.214944
	0.0136037	0.216225
	5.80517e-009	0.216652
	0.262635	1.49197e-019
	0.262117	0.016491
	0.260564	0.0329169
	0.257983	0.0492129
	0.254384	0.0653147
	0.249781	0.0811587
	0.244192	0.0966824
	0.237639	0.111825
	0.230149	0.126525
	0.22175	0.140727
	0.212476	0.154373
	0.202364	0.16741
	0.191453	0.179786
	0.179786	0.191453
	0.16741	0.202364
	0.154373	0.212476
	0.140727	0.22175
	0.126525	0.230149
	0.111825	0.237639
	0.0966824	0.244192
	0.0811587	0.249781
	0.0653147	0.254384
	0.0492129	0.257983
	0.0329169	0.260564
	0.016491	0.262117
	7.03728e-009	0.262635
	0.296686	-6.83266e-019
	0.2961	0.0186291
	0.294346	0.0371846
	0.291431	0.0555934
	0.287365	0.0737828
	0.282165	0.091681
	0.275852	0.109217
	0.268449	0.126323
	0.259988	0.14293
	0.2505	0.158972
	0.240024	0.174388
	0.2286	0.189115
	0.216275	0.203095
	0.203095	0.216275
	0.189115	0.2286
	0.174388	0.240024
	0.158972	0.2505
	0.14293	0.259988
	0.126323	0.268449
	0.109217	0.275852
	0.091681	0.282165
	0.0737828	0.287365
	0.0555934	0.291431
	0.0371846	0.294346
	0.0186291	0.2961
	7.94967e-009	0.296686
	0.325125	-7.37834e-019
	0.324484	0.0204148
	0.322561	0.040749
	0.319366	0.0609224
	0.314911	0.0808553
	0.309212	0.100469
	0.302294	0.119687
	0.294182	0.138432
	0.284909	0.15663
	0.274512	0.174211
	0.263032	0.191104
	0.250513	0.207243
	0.237006	0.222563
	0.222563	0.237006
	0.207243	0.250513
	0.191104	0.263032
	0.174211	0.274512
	0.15663	0.284909
	0.138432	0.294182
	0.119687	0.302294
	0.100469	0.309212
	0.0808553	0.314911
	0.0609224	0.319366
	0.040749	0.322561
	0.0204148	0.324484
	8.71169e-009	0.325125
	0.349963	5.66124e-019
	0.349272	0.0219744
	0.347203	0.043862
	0.343764	0.0655765
	0.338968	0.0870322
	0.332835	0.108144
	0.325387	0.12883
	0.316656	0.149007
	0.306675	0.168596
	0.295483	0.18752
	0.283126	0.205703
	0.269651	0.223075
	0.255112	0.239566
	0.239566	0.255112
	0.223075	0.269651
	0.205703	0.283126
	0.18752	0.295483
	0.168596	0.306675
	0.149007	0.316656
	0.12883	0.325387
	0.108144	0.332835
	0.0870322	0.338968
	0.0655765	0.343764
	0.043862	0.347203
	0.0219744	0.349272
	9.37722e-009	0.349963
	0.372103	9.47787e-019
	0.371368	0.0233645
	0.369168	0.0466368
	0.365512	0.0697251
	0.360412	0.0925381
	0.353891	0.114986
	0.345972	0.13698
	0.336688	0.158434
	0.326076	0.179262
	0.314177	0.199383
	0.301037	0.218716
	0.28671	0.237187
	0.271251	0.254722
	0.254722	0.271251
	0.237187	0.28671
	0.218716	0.301037
	0.199383	0.314177
	0.179262	0.326076
	0.158434	0.336688
	0.13698	0.345972
	0.114986	0.353891
	0.0925382	0.360412
	0.0697251	0.365512
	0.0466368	0.369168
	0.0233645	0.371368
	9.97045e-009	0.372103
	0.392119	-8.27212e-019
	0.391345	0.0246214
	0.389027	0.0491455
	0.385174	0.0734758
	0.3798	0.097516
	0.372927	0.121171
	0.364583	0.144349
	0.3548	0.166956
	0.343617	0.188905
	0.331077	0.210108
	0.317231	0.230482
	0.302133	0.249946
	0.285842	0.268424
	0.268424	0.285842
	0.249946	0.302133
	0.230482	0.317231
	0.210108	0.331077
	0.188905	0.343617
	0.166956	0.3548
	0.144349	0.364583
	0.121171	0.372927
	0.097516	0.3798
	0.0734758	0.385174
	0.0491456	0.389027
	0.0246214	0.391345
	1.05068e-008	0.392119
	0.410376	4.88309e-019
	0.409566	0.0257677
	0.40714	0.0514338
	0.403107	0.0768968
	0.397484	0.102056
	0.390291	0.126813
	0.381558	0.15107
	0.37132	0.17473
	0.359615	0.1977
	0.346492	0.219891
	0.332001	0.241213
	0.3162	0.261584
	0.299151	0.280922
	0.280922	0.299151
	0.261584	0.3162
	0.241213	0.332001
	0.219891	0.346492
	0.1977	0.359615
	0.17473	0.37132
	0.15107	0.381558
	0.126813	0.390291
	0.102056	0.397484
	0.0768969	0.403107
	0.0514338	0.40714
	0.0257677	0.409566
	1.0996e-008	0.410376
	0.427145	-4.47402e-019
	0.426302	0.0268206
	0.423776	0.0535354
	0.419579	0.0800389
	0.413725	0.106227
	0.406239	0.131995
	0.397149	0.157242
	0.386492	0.181869
	0.37431	0.205778
	0.36065	0.228875
	0.345567	0.251069
	0.329121	0.272272
	0.311375	0.292401
	0.292401	0.311375
	0.272272	0.329121
	0.251069	0.345567
	0.228875	0.36065
	0.205778	0.37431
	0.181869	0.386492
	0.157242	0.397149
	0.131995	0.406239
	0.106227	0.413725
	0.0800389	0.419579
	0.0535354	0.423776
	0.0268206	0.426302
	1.14453e-008	0.427145
	0.442631	2.21155e-019
	0.441758	0.027793
	0.439141	0.0554764
	0.434791	0.0829408
	0.428725	0.110078
	0.420967	0.136781
	0.411548	0.162943
	0.400505	0.188463
	0.387881	0.213239
	0.373726	0.237174
	0.358096	0.260172
	0.341053	0.282144
	0.322664	0.303002
	0.303002	0.322664
	0.282144	0.341053
	0.260172	0.358096
	0.237174	0.373726
	0.213239	0.387881
	0.188463	0.400505
	0.162943	0.411548
	0.136781	0.420967
	0.110078	0.428725
	0.0829408	0.434791
	0.0554764	0.439141
	0.0277931	0.441758
	1.18603e-008	0.442631
	0.456997	-6.09914e-019
	0.456095	0.0286951
	0.453394	0.0572769
	0.448903	0.0856327
	0.44264	0.113651
	0.43463	0.14122
	0.424905	0.168232
	0.413503	0.19458
	0.40047	0.22016
	0.385856	0.244871
	0.369719	0.268616
	0.352122	0.291301
	0.333137	0.312836
	0.312836	0.333137
	0.291301	0.352122
	0.268616	0.369719
	0.244871	0.385856
	0.22016	0.40047
	0.19458	0.413503
	0.168232	0.424905
	0.14122	0.43463
	0.113651	0.44264
	0.0856328	0.448903
	0.057277	0.453394
	0.0286951	0.456095
	1.22452e-008	0.456997
	0.470371	6.01325e-019
	0.469443	0.0295348
	0.466662	0.0589531
	0.462039	0.0881387
	0.455593	0.116976
	0.447349	0.145353
	0.43734	0.173155
	0.425604	0.200274
	0.412189	0.226603
	0.397147	0.252037
	0.380538	0.276477
	0.362427	0.299826
	0.342886	0.321991
	0.321991	0.342886
	0.299826	0.362427
	0.276477	0.380538
	0.252037	0.397147
	0.226603	0.412189
	0.200274	0.425604
	0.173155	0.43734
	0.145353	0.447349
	0.116977	0.455593
	0.0881387	0.462039
	0.0589531	0.466662
	0.0295348	0.469443
	1.26035e-008	0.470371
	0.482857	-5.35565e-019
	0.481904	0.0303188
	0.47905	0.060518
	0.474304	0.0904784
	0.467687	0.120082
	0.459224	0.149211
	0.448949	0.177752
	0.436902	0.205591
	0.423131	0.232618
	0.40769	0.258728
	0.39064	0.283816
	0.372048	0.307785
	0.351988	0.330538
	0.330538	0.351988
	0.307785	0.372048
	0.283816	0.39064
	0.258728	0.40769
	0.232618	0.423131
	0.205591	0.436902
	0.177752	0.448949
	0.149211	0.459224
	0.120082	0.467687
	0.0904784	0.474304
	0.060518	0.47905
	0.0303189	0.481904
	1.29381e-008	0.482857
	0.494543	8.8937e-019
	0.493567	0.0310526
	0.490643	0.0619827
	0.485783	0.0926681
	0.479006	0.122988
	0.470338	0.152822
	0.459814	0.182053
	0.447476	0.210566
	0.433371	0.238248
	0.417556	0.264989
	0.400094	0.290685
	0.381052	0.315234
	0.360506	0.338538
	0.338538	0.360506
	0.315234	0.381052
	0.290685	0.400094
	0.264989	0.417556
	0.238248	0.433371
	0.210566	0.447476
	0.182053	0.459814
	0.152822	0.470338
	0.122988	0.479006
	0.0926681	0.485783
	0.0619827	0.490643
	0.0310526	0.493567
	1.32512e-008	0.494543
	0.505503	-1.24124e-018
	0.504506	0.0317408
	0.501517	0.0633563
	0.496549	0.0947218
	0.489622	0.125714
	0.480762	0.156209
	0.470005	0.186088
	0.457393	0.215233
	0.442976	0.243528
	0.42681	0.270862
	0.408961	0.297127
	0.389497	0.32222
	0.368496	0.346041
	0.346041	0.368496
	0.32222	0.389497
	0.297127	0.408961
	0.270862	0.42681
	0.243528	0.442976
	0.215233	0.457393
	0.186088	0.470005
	0.156209	0.480762
	0.125714	0.489622
	0.0947219	0.496549
	0.0633564	0.501517
	0.0317408	0.504506
	1.35449e-008	0.505503
	0.515802	1.36495e-018
	0.514784	0.0323875
	0.511735	0.0646471
	0.506666	0.0966517
	0.499597	0.128275
	0.490557	0.159392
	0.479581	0.189879
	0.466712	0.219618
	0.452001	0.24849
	0.435506	0.276381
	0.417293	0.303181
	0.397432	0.328785
	0.376004	0.353091
	0.353091	0.376004
	0.328785	0.397432
	0.303181	0.417293
	0.276381	0.435506
	0.24849	0.452001
	0.219618	0.466712
	0.189879	0.479581
	0.159392	0.490557
	0.128275	0.499597
	0.0966517	0.506666
	0.0646472	0.511735
	0.0323875	0.514784
	1.38209e-008	0.515802
	0.525496	-1.55764e-018
	0.524459	0.0329962
	0.521352	0.0658621
	0.516188	0.0984681
	0.508987	0.130686
	0.499776	0.162387
	0.488594	0.193448
	0.475483	0.223745
	0.460496	0.25316
	0.443691	0.281575
	0.425135	0.308879
	0.404902	0.334964
	0.38307	0.359727
	0.359727	0.38307
	0.334964	0.404902
	0.308879	0.425135
	0.281575	0.443691
	0.25316	0.460496
	0.223745	0.475483
	0.193448	0.488594
	0.162387	0.499776
	0.130686	0.508987
	0.0984682	0.516188
	0.0658621	0.521352
	0.0329962	0.524459
	1.40806e-008	0.525496
	0.534635	1.32932e-018
	0.53358	0.03357
	0.530419	0.0670075
	0.525165	0.100181
	0.517838	0.132958
	0.508468	0.165211
	0.497091	0.196812
	0.483752	0.227636
	0.468504	0.257562
	0.451407	0.286472
	0.432529	0.314251
	0.411943	0.340789
	0.389732	0.365983
	0.365983	0.389732
	0.340789	0.411943
	0.314251	0.432529
	0.286472	0.451407
	0.257562	0.468504
	0.227636	0.483752
	0.196812	0.497091
	0.165211	0.508468
	0.132958	0.517838
	0.100181	0.525165
	0.0670075	0.530419
	0.03357	0.53358
	1.43255e-008	0.534635
	0.543263	-1.4982e-018
	0.542191	0.0341118
	0.538979	0.0680889
	0.53364	0.101797
	0.526195	0.135104
	0.516674	0.167878
	0.505113	0.199988
	0.491559	0.23131
	0.476065	0.261719
	0.458692	0.291095
	0.439509	0.319322
	0.418591	0.346289
	0.396022	0.371889
	0.371889	0.396022
	0.346289	0.418591
	0.319322	0.439509
	0.291095	0.458692
	0.261719	0.476065
	0.23131	0.491559
	0.199988	0.505113
	0.167878	0.516674
	0.135104	0.526195
	0.101797	0.53364
	0.0680889	0.538979
	0.0341118	0.542191
	1.45567e-008	0.543263
	0.55142	1.75833e-018
	0.550332	0.034624
	0.547072	0.0691113
	0.541653	0.103326
	0.534096	0.137133
	0.524432	0.170398
	0.512698	0.202991
	0.49894	0.234783
	0.483213	0.265649
	0.46558	0.295466
	0.446108	0.324117
	0.424877	0.351489
	0.401968	0.377473
	0.377473	0.401968
	0.351489	0.424877
	0.324117	0.446108
	0.295466	0.46558
	0.265649	0.483213
	0.234783	0.49894
	0.202991	0.512698
	0.170398	0.524432
	0.137133	0.534096
	0.103326	0.541653
	0.0691113	0.547072
	0.034624	0.550332
	1.47753e-008	0.55142
	0.559143	-8.96276e-019
	0.55804	0.0351089
	0.554734	0.0700792
	0.549239	0.104773
	0.541576	0.139053
	0.531776	0.172785
	0.519878	0.205834
	0.505928	0.238071
	0.489981	0.269369
	0.4721	0.299604
	0.452356	0.328656
	0.430827	0.356411
	0.407598	0.38276
	0.38276	0.407598
	0.356411	0.430827
	0.328656	0.452356
	0.299604	0.4721
	0.269369	0.489981
	0.238071	0.505928
	0.205834	0.519878
	0.172785	0.531776
	0.139053	0.541576
	0.104773	0.549239
	0.0700792	0.554734
	0.0351089	0.55804
	1.49822e-008	0.559143
	0.566463	1.90377e-018
	0.565345	0.0355685
	0.561996	0.0709966
	0.556429	0.106145
	0.548667	0.140874
	0.538738	0.175047
	0.526684	0.208529
	0.512551	0.241188
	0.496395	0.272896
	0.478281	0.303526
	0.458278	0.332959
	0.436467	0.361077
	0.412934	0.387771
	0.387771	0.412934
	0.361077	0.436467
	0.332959	0.458278
	0.303526	0.478281
	0.272896	0.496395
	0.241188	0.512551
	0.208529	0.526684
	0.175047	0.538738
	0.140874	0.548667
	0.106145	0.556429
	0.0709967	0.561996
	0.0355685	0.565345
	1.51783e-008	0.566463
	0.57341	-2.29032e-018
	0.572279	0.0360047
	0.568889	0.0718673
	0.563253	0.107446
	0.555395	0.142601
	0.545345	0.177193
	0.533143	0.211086
	0.518837	0.244146
	0.502483	0.276242
	0.484146	0.307248
	0.463899	0.337042
	0.44182	0.365505
	0.417998	0.392526
	0.392526	0.417998
	0.365505	0.44182
	0.337042	0.463899
	0.307249	0.484146
	0.276242	0.502483
	0.244146	0.518837
	0.211086	0.533143
	0.177193	0.545345
	0.142601	0.555395
	0.107446	0.563253
	0.0718674	0.568889
	0.0360047	0.572279
	1.53645e-008	0.57341
	0.580012	1.50787e-018
	0.578868	0.0364193
	0.575439	0.0726948
	0.569738	0.108683
	0.56179	0.144243
	0.551624	0.179234
	0.539282	0.213517
	0.524811	0.246957
	0.508268	0.279423
	0.48972	0.310786
	0.46924	0.340923
	0.446907	0.369714
	0.422811	0.397046
	0.397046	0.422811
	0.369714	0.446907
	0.340923	0.46924
	0.310786	0.48972
	0.279423	0.508268
	0.246957	0.524811
	0.213517	0.539282
	0.179234	0.551624
	0.144243	0.56179
	0.108683	0.569738
	0.0726948	0.575439
	0.0364193	0.578868
	1.55414e-008	0.580012
	0.586296	-5.39271e-019
	0.585139	0.0368138
	0.581673	0.0734824
	0.575911	0.109861
	0.567877	0.145806
	0.557601	0.181175
	0.545124	0.21583
	0.530497	0.249633
	0.513775	0.28245
	0.495026	0.314153
	0.474324	0.344616
	0.451749	0.373719
	0.427391	0.401347
	0.401347	0.427391
	0.373719	0.451749
	0.344616	0.474323
	0.314153	0.495026
	0.28245	0.513775
	0.249633	0.530497
	0.21583	0.545124
	0.181175	0.557601
	0.145806	0.567877
	0.109861	0.575911
	0.0734824	0.581673
	0.0368139	0.585139
	1.57097e-008	0.586296
	0.592282	8.18509e-019
	0.591114	0.0371897
	0.587612	0.0742326
	0.581791	0.110983
	0.573675	0.147295
	0.563294	0.183025
	0.55069	0.218034
	0.535913	0.252182
	0.519021	0.285334
	0.50008	0.317361
	0.479166	0.348135
	0.456361	0.377535
	0.431755	0.405445
	0.405445	0.431755
	0.377535	0.456361
	0.348135	0.479166
	0.317361	0.50008
	0.285334	0.519021
	0.252182	0.535913
	0.218034	0.55069
	0.183025	0.563294
	0.147295	0.573675
	0.110983	0.581791
	0.0742327	0.587612
	0.0371897	0.591114
	1.58701e-008	0.592282
	0.597982	-1.27999e-018
	0.596802	0.0375476
	0.593266	0.074947
	0.58739	0.112051
	0.579195	0.148712
	0.568714	0.184787
	0.555989	0.220132
	0.54107	0.254608
	0.524015	0.28808
	0.504893	0.320415
	0.483777	0.351485
	0.460753	0.381168
	0.43591	0.409347
	0.409347	0.43591
	0.381168	0.460753
	0.351485	0.483777
	0.320415	0.504893
	0.28808	0.524015
	0.254608	0.54107
	0.220132	0.555989
	0.184787	0.568714
	0.148712	0.579195
	0.112051	0.58739
	0.074947	0.593266
	0.0375476	0.596802
	1.60229e-008	0.597982
	0.603446	1.07438e-018
	0.602255	0.0378907
	0.598687	0.0756318
	0.592757	0.113074
	0.584487	0.150071
	0.573911	0.186475
	0.56107	0.222143
	0.546014	0.256935
	0.528803	0.290712
	0.509506	0.323342
	0.488198	0.354696
	0.464963	0.384651
	0.439893	0.413087
	0.413087	0.439893
	0.384651	0.464963
	0.354696	0.488198
	0.323342	0.509506
	0.290712	0.528803
	0.256935	0.546014
	0.222143	0.56107
	0.186475	0.573911
	0.150071	0.584487
	0.113074	0.592757
	0.0756318	0.598687
	0.0378907	0.602255
	1.61693e-008	0.603446
	0.608914	-1.09988e-018
	0.607713	0.038234
	0.604113	0.0763172
	0.598129	0.114099
	0.589784	0.151431
	0.579112	0.188165
	0.566154	0.224156
	0.550962	0.259263
	0.533596	0.293347
	0.514123	0.326273
	0.492622	0.357911
	0.469176	0.388137
	0.443879	0.41683
	0.41683	0.443879
	0.388137	0.469176
	0.357911	0.492622
	0.326273	0.514123
	0.293347	0.533596
	0.259263	0.550962
	0.224156	0.566154
	0.188165	0.579112
	0.151431	0.589784
	0.114099	0.598129
	0.0763172	0.604113
	0.0382341	0.607713
	1.63158e-008	0.608914
	0.615243	4.67329e-019
	0.614029	0.0386314
	0.610391	0.0771104
	0.604345	0.115285
	0.595914	0.153005
	0.585131	0.19012
	0.572038	0.226486
	0.556688	0.261958
	0.539141	0.296395
	0.519467	0.329664
	0.497742	0.361631
	0.474053	0.39217
	0.448493	0.421163
	0.421163	0.448493
	0.39217	0.474053
	0.361631	0.497742
	0.329664	0.519467
	0.296395	0.539141
	0.261958	0.556688
	0.226486	0.572038
	0.19012	0.585131
	0.153005	0.595914
	0.115285	0.604345
	0.0771104	0.610391
	0.0386314	0.614029
	1.64854e-008	0.615243
	0.622768	4.9122e-021
	0.621539	0.0391039
	0.617857	0.0780535
	0.611737	0.116695
	0.603203	0.154876
	0.592287	0.192446
	0.579035	0.229256
	0.563497	0.265162
	0.545736	0.300021
	0.52582	0.333696
	0.50383	0.366054
	0.479851	0.396967
	0.453978	0.426314
	0.426314	0.453978
	0.396967	0.479851
	0.366054	0.50383
	0.333696	0.52582
	0.300021	0.545736
	0.265162	0.563497
	0.229256	0.579035
	0.192446	0.592287
	0.154876	0.603203
	0.116695	0.611737
	0.0780535	0.617857
	0.0391039	0.621539
	1.6687e-008	0.622768
	0.640034	5.2496e-022
	0.638771	0.0401881
	0.634987	0.0802176
	0.628697	0.11993
	0.619926	0.15917
	0.608709	0.197781
	0.595089	0.235612
	0.57912	0.272513
	0.560866	0.308339
	0.540399	0.342947
	0.517799	0.376203
	0.493155	0.407973
	0.466565	0.438134
	0.438134	0.466565
	0.407973	0.493155
	0.376203	0.517799
	0.342947	0.540399
	0.308339	0.560866
	0.272513	0.57912
	0.235612	0.595089
	0.197781	0.608709
	0.15917	0.619926
	0.11993	0.628697
	0.0802176	0.634987
	0.0401881	0.638771
	1.71497e-008	0.640034
	0.66	1.04369e-022
	0.658698	0.0414417
	0.654796	0.0827199
	0.64831	0.123672
	0.639265	0.164135
	0.627697	0.203951
	0.613652	0.242962
	0.597186	0.281014
	0.578362	0.317957
	0.557256	0.353646
	0.533951	0.387938
	0.508539	0.4207
	0.481119	0.451801
	0.451801	0.481119
	0.4207	0.508539
	0.387938	0.533951
	0.353646	0.557256
	0.317957	0.578362
	0.281014	0.597186
	0.242962	0.613652
	0.203951	0.627697
	0.164135	0.639265
	0.123672	0.64831
	0.08272	0.654796
	0.0414418	0.658698
	1.76846e-008	0.66
	0.68	1.22399e-022
	0.678658	0.0426976
	0.674638	0.0852266
	0.667955	0.127419
	0.658637	0.169109
	0.646718	0.210132
	0.632248	0.250325
	0.615282	0.28953
	0.595889	0.327592
	0.574143	0.364362
	0.550132	0.399694
	0.523949	0.433448
	0.495699	0.465492
	0.465492	0.495699
	0.433448	0.523949
	0.399694	0.550132
	0.364362	0.574143
	0.327593	0.595889
	0.28953	0.615282
	0.250325	0.632248
	0.210132	0.646718
	0.169109	0.658637
	0.127419	0.667955
	0.0852266	0.674638
	0.0426976	0.678658
	1.82205e-008	0.68
	0.7	3.88729e-023
	0.698619	0.0439534
	0.69448	0.0877333
	0.687601	0.131167
	0.678008	0.174083
	0.66574	0.216312
	0.650844	0.257687
	0.633379	0.298045
	0.613415	0.337228
	0.59103	0.375079
	0.566312	0.41145
	0.539359	0.446197
	0.510278	0.479183
	0.479183	0.510278
	0.446197	0.539359
	0.41145	0.566312
	0.375079	0.59103
	0.337228	0.613415
	0.298046	0.633379
	0.257687	0.650844
	0.216312	0.66574
	0.174083	0.678008
	0.131167	0.687601
	0.0877333	0.69448
	0.0439534	0.698619
	1.87564e-008	0.7
	0.72	3.9709e-023
	0.718579	0.0452092
	0.714323	0.0902399
	0.707247	0.134915
	0.69738	0.179057
	0.684761	0.222492
	0.669439	0.26505
	0.651475	0.306561
	0.630941	0.346863
	0.607916	0.385795
	0.582492	0.423205
	0.55477	0.458945
	0.524857	0.492874
	0.492874	0.524857
	0.458945	0.55477
	0.423205	0.582492
	0.385795	0.607916
	0.346863	0.630941
	0.306561	0.651475
	0.26505	0.669439
	0.222492	0.684761
	0.179057	0.69738
	0.134915	0.707247
	0.0902399	0.714323
	0.0452092	0.718579
	1.92923e-008	0.72
	0.74	1.31614e-022
	0.73854	0.046465
	0.734165	0.0927466
	0.726893	0.138662
	0.716752	0.184031
	0.703782	0.228673
	0.688035	0.272412
	0.669572	0.315077
	0.648467	0.356498
	0.624803	0.396512
	0.598673	0.434961
	0.57018	0.471694
	0.539437	0.506565
	0.506565	0.539437
	0.471694	0.57018
	0.434961	0.598673
	0.396512	0.624803
	0.356498	0.648467
	0.315077	0.669572
	0.272412	0.688035
	0.228673	0.703782
	0.184031	0.716752
	0.138662	0.726893
	0.0927466	0.734165
	0.046465	0.73854
	1.98282e-008	0.74
	0.76	1.31614e-022
	0.7585	0.0477208
	0.754007	0.0952533
	0.746538	0.14241
	0.736123	0.189004
	0.722803	0.234853
	0.70663	0.279775
	0.687669	0.323592
	0.665993	0.366133
	0.641689	0.407228
	0.614853	0.446717
	0.58559	0.484442
	0.554016	0.520256
	0.520256	0.554016
	0.484442	0.58559
	0.446717	0.614853
	0.407228	0.641689
	0.366133	0.665993
	0.323592	0.687669
	0.279775	0.70663
	0.234853	0.722803
	0.189004	0.736123
	0.14241	0.746538
	0.0952533	0.754007
	0.0477208	0.7585
	2.03641e-008	0.76
	0.78	1.31614e-022
	0.778461	0.0489766
	0.773849	0.0977599
	0.766184	0.146157
	0.755495	0.193978
	0.741824	0.241033
	0.725226	0.287137
	0.705765	0.332108
	0.683519	0.375768
	0.658576	0.417945
	0.631033	0.458472
	0.601	0.497191
	0.568596	0.533947
	0.533947	0.568596
	0.497191	0.601
	0.458473	0.631033
	0.417945	0.658576
	0.375768	0.683519
	0.332108	0.705765
	0.287137	0.725226
	0.241033	0.741824
	0.193978	0.755495
	0.146157	0.766184
	0.0977599	0.773849
	0.0489766	0.778461
	2.09e-008	0.78
	0.8	1.31614e-022
	0.798421	0.0502324
	0.793692	0.100267
	0.78583	0.149905
	0.774867	0.198952
	0.760845	0.247214
	0.743821	0.2945
	0.723862	0.340623
	0.701045	0.385403
	0.675462	0.428661
	0.647214	0.470228
	0.616411	0.509939
	0.583175	0.547638
	0.547638	0.583175
	0.509939	0.616411
	0.470228	0.647214
	0.428661	0.675462
	0.385403	0.701045
	0.340623	0.723862
	0.2945	0.743821
	0.247214	0.760845
	0.198952	0.774867
	0.149905	0.78583
	0.100267	0.793692
	0.0502324	0.798421
	2.14359e-008	0.8
	0.82	3.9709e-023
	0.818382	0.0514882
	0.813534	0.102773
	0.805476	0.153653
	0.794238	0.203926
	0.779866	0.253394
	0.762417	0.301862
	0.741958	0.349139
	0.718571	0.395038
	0.692349	0.439378
	0.663394	0.481984
	0.631821	0.522688
	0.597754	0.561329
	0.561329	0.597754
	0.522688	0.631821
	0.481984	0.663394
	0.439378	0.692349
	0.395038	0.718571
	0.349139	0.741958
	0.301862	0.762417
	0.253394	0.779866
	0.203926	0.794238
	0.153653	0.805476
	0.102773	0.813534
	0.0514882	0.818382
	2.19718e-008	0.82
	0.84	3.9709e-023
	0.838342	0.052744
	0.833376	0.10528
	0.825121	0.1574
	0.81361	0.2089
	0.798887	0.259574
	0.781012	0.309225
	0.760055	0.357655
	0.736098	0.404673
	0.709235	0.450095
	0.679574	0.49374
	0.647231	0.535436
	0.612334	0.57502
	0.57502	0.612334
	0.535436	0.647231
	0.49374	0.679574
	0.450095	0.709235
	0.404673	0.736098
	0.357655	0.760055
	0.309225	0.781012
	0.259574	0.798887
	0.2089	0.81361
	0.1574	0.825121
	0.10528	0.833376
	0.0527441	0.838342
	2.25077e-008	0.84
	0.86	1.31614e-022
	0.858303	0.0539998
	0.853219	0.107787
	0.844767	0.161148
	0.832982	0.213873
	0.817909	0.265755
	0.799608	0.316587
	0.778151	0.36617
	0.753624	0.414308
	0.726122	0.460811
	0.695755	0.505495
	0.662641	0.548185
	0.626913	0.588711
	0.588711	0.626913
	0.548185	0.662641
	0.505495	0.695755
	0.460811	0.726122
	0.414308	0.753624
	0.36617	0.778151
	0.316587	0.799608
	0.265755	0.817909
	0.213873	0.832982
	0.161148	0.844767
	0.107787	0.853219
	0.0539999	0.858303
	2.30436e-008	0.86
	0.88	1.31614e-022
	0.878264	0.0552557
	0.873061	0.110293
	0.864413	0.164896
	0.852353	0.218847
	0.83693	0.271935
	0.818203	0.32395
	0.796248	0.374686
	0.77115	0.423943
	0.743009	0.471528
	0.711935	0.517251
	0.678052	0.560933
	0.641492	0.602401
	0.602401	0.641492
	0.560933	0.678052
	0.517251	0.711935
	0.471528	0.743009
	0.423943	0.77115
	0.374686	0.796248
	0.32395	0.818203
	0.271935	0.83693
	0.218847	0.852353
	0.164896	0.864413
	0.110293	0.873061
	0.0552557	0.878264
	2.35795e-008	0.88
	0.9	1.31614e-022
	0.898224	0.0565115
	0.892903	0.1128
	0.884059	0.168643
	0.871725	0.223821
	0.855951	0.278115
	0.836799	0.331312
	0.814344	0.383201
	0.788676	0.433578
	0.759895	0.482244
	0.728115	0.529007
	0.693462	0.573682
	0.656072	0.616092
	0.616092	0.656072
	0.573682	0.693462
	0.529007	0.728115
	0.482244	0.759895
	0.433578	0.788676
	0.383201	0.814344
	0.331312	0.836799
	0.278115	0.855951
	0.223821	0.871725
	0.168643	0.884059
	0.1128	0.892903
	0.0565115	0.898224
	2.41154e-008	0.9
	0.92	1.31614e-022
	0.918185	0.0577673
	0.912746	0.115307
	0.903704	0.172391
	0.891097	0.228795
	0.874972	0.284296
	0.855394	0.338675
	0.832441	0.391717
	0.806202	0.443213
	0.776782	0.492961
	0.744296	0.540762
	0.708872	0.58643
	0.670651	0.629783
	0.629783	0.670651
	0.58643	0.708872
	0.540762	0.744296
	0.492961	0.776782
	0.443213	0.806202
	0.391717	0.832441
	0.338675	0.855394
	0.284296	0.874972
	0.228795	0.891097
	0.172391	0.903704
	0.115307	0.912746
	0.0577673	0.918185
	2.46513e-008	0.92
	0.94	3.9709e-023
	0.938145	0.0590231
	0.932588	0.117813
	0.92335	0.176138
	0.910468	0.233768
	0.893993	0.290476
	0.87399	0.346037
	0.850537	0.400233
	0.823728	0.452848
	0.793668	0.503677
	0.760476	0.552518
	0.724282	0.599179
	0.685231	0.643474
	0.643474	0.685231
	0.599179	0.724282
	0.552518	0.760476
	0.503677	0.793668
	0.452848	0.823728
	0.400233	0.850537
	0.346037	0.87399
	0.290476	0.893993
	0.233769	0.910468
	0.176138	0.92335
	0.117813	0.932588
	0.0590231	0.938145
	2.51872e-008	0.94
	0.96	3.9709e-023
	0.958106	0.0602789
	0.95243	0.12032
	0.942996	0.179886
	0.92984	0.238742
	0.913014	0.296656
	0.892585	0.3534
	0.868634	0.408748
	0.841254	0.462484
	0.810555	0.514394
	0.776656	0.564274
	0.739693	0.611927
	0.69981	0.657165
	0.657165	0.69981
	0.611927	0.739693
	0.564274	0.776656
	0.514394	0.810555
	0.462484	0.841254
	0.408748	0.868634
	0.3534	0.892585
	0.296656	0.913014
	0.238742	0.92984
	0.179886	0.942996
	0.12032	0.95243
	0.0602789	0.958106
	2.57231e-008	0.96
	0.98	1.31614e-022
	0.978066	0.0615347
	0.972272	0.122827
	0.962642	0.183634
	0.949211	0.243716
	0.932035	0.302837
	0.911181	0.360762
	0.886731	0.417264
	0.858781	0.472119
	0.827441	0.52511
	0.792837	0.57603
	0.755103	0.624676
	0.714389	0.670856
	0.670856	0.714389
	0.624676	0.755103
	0.57603	0.792837
	0.52511	0.827441
	0.472119	0.858781
	0.417264	0.886731
	0.360762	0.911181
	0.302837	0.932035
	0.243716	0.949211
	0.183634	0.962642
	0.122827	0.972272
	0.0615347	0.978066
	2.6259e-008	0.98
	1	0
	0.998027	0.0627905
	0.992115	0.125333
	0.982287	0.187381
	0.968583	0.24869
	0.951057	0.309017
	0.929776	0.368125
	0.904827	0.425779
	0.876307	0.481754
	0.844328	0.535827
	0.809017	0.587785
	0.770513	0.637424
	0.728969	0.684547
	0.684547	0.728969
	0.637424	0.770513
	0.587785	0.809017
	0.535827	0.844328
	0.481754	0.876307
	0.425779	0.904827
	0.368125	0.929776
	0.309017	0.951057
	0.24869	0.968583
	0.187381	0.982287
	0.125333	0.992115
	0.0627905	0.998027
	2.67949e-008	1
	1	2	3	1
	1	3	4	1
	1	4	5	1
	1	5	6	1
	1	6	7	1
	1	7	8	1
	1	8	9	1
	1	9	10	1
	1	10	11	1
	1	11	12	1
	1	12	13	1
	1	13	14	1
	1	14	15	1
	1	15	16	1
	1	16	17	1
	1	17	18	1
	1	18	19	1
	1	19	20	1
	1	20	21	1
	1	21	22	1
	1	22	23	1
	1	23	24	1
	1	24	25	1
	1	25	26	1
	1	26	27	1
	2	28	29	3
	3	29	30	4
	4	30	31	5
	5	31	32	6
	6	32	33	7
	7	33	34	8
	8	34	35	9
	9	35	36	10
	10	36	37	11
	11	37	38	12
	12	38	39	13
	13	39	40	14
	14	40	41	15
	15	41	42	16
	16	42	43	17
	17	43	44	18
	18	44	45	19
	19	45	46	20
	20	46	47	21
	21	47	48	22
	22	48	49	23
	23	49	50	24
	24	50	51	25
	25	51	52	26
	26	52	53	27
	28	54	55	29
	29	55	56	30
	30	56	57	31
	31	57	58	32
	32	58	59	33
	33	59	60	34
	34	60	61	35
	35	61	62	36
	36	62	63	37
	37	63	64	38
	38	64	65	39
	39	65	66	40
	40	66	67	41
	41	67	68	42
	42	68	69	43
	43	69	70	44
	44	70	71	45
	45	71	72	46
	46	72	73	47
	47	73	74	48
	48	74	75	49
	49	75	76	50
	50	76	77	51
	51	77	78	52
	52	78	79	53
	54	80	81	55
	55	81	82	56
	56	82	83	57
	57	83	84	58
	58	84	85	59
	59	85	86	60
	60	86	87	61
	61	87	88	62
	62	88	89	63
	63	89	90	64
	64	90	91	65
	65	91	92	66
	66	92	93	67
	67	93	94	68
	68	94	95	69
	69	95	96	70
	70	96	97	71
	71	97	98	72
	72	98	99	73
	73	99	100	74
	74	100	101	75
	75	101	102	76
	76	102	103	77
	77	103	104	78
	78	104	105	79
	80	106	107	81
	81	107	108	82
	82	108	109	83
	83	109	110	84
	84	110	111	85
	85	111	112	86
	86	112	113	87
	87	113	114	88
	88	114	115	89
	89	115	116	90
	90	116	117	91
	91	117	118	92
	92	118	119	93
	93	119	120	94
	94	120	121	95
	95	121	122	96
	96	122	123	97
	97	123	124	98
	98	124	125	99
	99	125	126	100
	100	126	127	101
	101	127	128	102
	102	128	129	103
	103	129	130	104
	104	130	131	105
	106	132	133	107
	107	133	134	108
	108	134	135	109
	109	135	136	110
	110	136	137	111
	111	137	138	112
	112	138	139	113
	113	139	140	114
	114	140	141	115
	115	141	142	116
	116	142	143	117
	117	143	144	118
	118	144	145	119
	119	145	146	120
	120	146	147	121
	121	147	148	122
	122	148	149	123
	123	149	150	124
	124	150	151	125
	125	151	152	126
	126	152	153	127
	127	153	154	128
	128	154	155	129
	129	155	156	130
	130	156	157	131
	132	158	159	133
	133	159	160	134
	134	160	161	135
	135	161	162	136
	136	162	163	137
	137	163	164	138
	138	164	165	139
	139	165	166	140
	140	166	167	141
	141	167	168	142
	142	168	169	143
	143	169	170	144
	144	170	171	145
	145	171	172	146
	146	172	173	147
	147	173	174	148
	148	174	175	149
	149	175	176	150
	150	176	177	151
	151	177	178	152
	152	178	179	153
	153	179	180	154
	154	180	181	155
	155	181	182	156
	156	182	183	157
	158	184	185	159
	159	185	186	160
	160	186	187	161
	161	187	188	162
	162	188	189	163
	163	189	190	164
	164	190	191	165
	165	191	192	166
	166	192	193	167
	167	193	194	168
	168	194	195	169
	169	195	196	170
	170	196	197	171
	171	197	198	172
	172	198	199	173
	173	199	200	174
	174	200	201	175
	175	201	202	176
	176	202	203	177
	177	203	204	178
	178	204	205	179
	179	205	206	180
	180	206	207	181
	181	207	208	182
	182	208	209	183
	184	210	211	185
	185	211	212	186
	186	212	213	187
	187	213	214	188
	188	214	215	189
	189	215	216	190
	190	216	217	191
	191	217	218	192
	192	218	219	193
	193	219	220	194
	194	220	221	195
	195	221	222	196
	196	222	223	197
	197	223	224	198
	198	224	225	199
	199	225	226	200
	200	226	227	201
	201	227	228	202
	202	228	229	203
	203	229	230	204
	204	230	231	205
	205	231	232	206
	206	232	233	207
	207	233	234	208
	208	234	235	209
	210	236	237	211
	211	237	238	212
	212	238	239	213
	213	239	240	214
	214	240	241	215
	215	241	242	216
	216	242	243	217
	217	243	244	218
	218	244	245	219
	219	245	246	220
	220	246	247	221
	221	247	248	222
	222	248	249	223
	223	249	250	224
	224	250	251	225
	225	251	252	226
	226	252	253	227
	227	253	254	228
	228	254	255	229
	229	255	256	230
	230	256	257	231
	231	257	258	232
	232	258	259	233
	233	259	260	234
	234	260	261	235
	236	262	263	237
	237	263	264	238
	238	264	265	239
	239	265	266	240
	240	266	267	241
	241	267	268	242
	242	268	269	243
	243	269	270	244
	244	270	271	245
	245	271	272	246
	246	272	273	247
	247	273	274	248
	248	274	275	249
	249	275	276	250
	250	276	277	251
	251	277	278	252
	252	278	279	253
	253	279	280	254
	254	280	281	255
	255	281	282	256
	256	282	283	257
	257	283	284	258
	258	284	285	259
	259	285	286	260
	260	286	287	261
	262	288	289	263
	263	289	290	264
	264	290	291	265
	265	291	292	266
	266	292	293	267
	267	293	294	268
	268	294	295	269
	269	295	296	270
	270	296	297	271
	271	297	298	272
	272	298	299	273
	273	299	300	274
	274	300	301	275
	275	301	302	276
	276	302	303	277
	277	303	304	278
	278	304	305	279
	279	305	306	280
	280	306	307	281
	281	307	308	282
	282	308	309	283
	283	309	310	284
	284	310	311	285
	285	311	312	286
	286	312	313	287
	288	314	315	289
	289	315	316	290
	290	316	317	291
	291	317	318	292
	292	318	319	293
	293	319	320	294
	294	320	321	295
	295	321	322	296
	296	322	323	297
	297	323	324	298
	298	324	325	299
	299	325	326	300
	300	326	327	301
	301	327	328	302
	302	328	329	303
	303	329	330	304
	304	330	331	305
	305	331	332	306
	306	332	333	307
	307	333	334	308
	308	334	335	309
	309	335	336	310
	310	336	337	311
	311	337	338	312
	312	338	339	313
	314	340	341	315