VARIABLES=X, Y,density
ZONE I = 1250, J = 1176, , F=FEPOINT, ET=QUADRILATERAL
	0	0	0.00852741
	0	0	0.00852741
	0	0	0.00852741
	0	0	0.00852741
	0	0	0.00852741
	0	0	0.00852741
	0	0	0.00852741
	0	0	0.00852741
	0	0	0.00852741
	0	0	0.00852741
	0	0	0.00852741
	0	0	0.00852741
	0	0	0.00852741
	0	0	0.00852741
	0	0	0.00852741
	0	0	0.00852741
	0	0	0.00852741
	0	0	0.00852741
	0	0	0.00852741
	0	0	0.00852741
	0	0	0.00852741
	0	0	0.00852741
	0	0	0.00852741
	0	0	0.00852741
	0	0	0.00852741
	0.216652	3.139e-018	0.054483
	0.216225	0.0136037	0.054483
	0.214944	0.0271537	0.054483
	0.212815	0.0405966	0.054483
	0.209846	0.0538792	0.054483
	0.206049	0.0669492	0.054483
	0.201438	0.079755	0.054483
	0.196033	0.092246	0.054483
	0.189854	0.104373	0.054483
	0.182926	0.116088	0.054483
	0.175275	0.127345	0.054483
	0.166933	0.138099	0.054483
	0.157933	0.148309	0.054483
	0.148309	0.157933	0.054483
	0.138099	0.166933	0.054483
	0.127345	0.175275	0.054483
	0.116088	0.182926	0.054483
	0.104373	0.189854	0.054483
	0.092246	0.196033	0.054483
	0.079755	0.201438	0.054483
	0.0669492	0.206049	0.054483
	0.0538792	0.209846	0.054483
	0.0405966	0.212815	0.054483
	0.0271537	0.214944	0.054483
	0.0136037	0.216225	0.054483
	0.262635	1.49197e-019	0.105074
	0.262117	0.016491	0.105074
	0.260564	0.0329169	0.105074
	0.257983	0.0492129	0.105074
	0.254384	0.0653147	0.105074
	0.249781	0.0811587	0.105074
	0.244192	0.0966824	0.105074
	0.237639	0.111825	0.105074
	0.230149	0.126525	0.105074
	0.22175	0.140727	0.105074
	0.212476	0.154373	0.105074
	0.202364	0.16741	0.105074
	0.191453	0.179786	0.105074
	0.179786	0.191453	0.105074
	0.16741	0.202364	0.105074
	0.154373	0.212476	0.105074
	0.140727	0.22175	0.105074
	0.126525	0.230149	0.105074
	0.111825	0.237639	0.105074
	0.0966824	0.244192	0.105074
	0.0811587	0.249781	0.105074
	0.0653147	0.254384	0.105074
	0.0492129	0.257983	0.105074
	0.0329169	0.260564	0.105074
	0.016491	0.262117	0.105074
	0.296686	-6.83266e-019	0.158425
	0.2961	0.0186291	0.158425
	0.294346	0.0371846	0.158425
	0.291431	0.0555934	0.158425
	0.287365	0.0737828	0.158425
	0.282165	0.091681	0.158425
	0.275852	0.109217	0.158425
	0.268449	0.126323	0.158425
	0.259988	0.14293	0.158425
	0.2505	0.158972	0.158425
	0.240024	0.174388	0.158425
	0.2286	0.189115	0.158425
	0.216275	0.203095	0.158425
	0.203095	0.216275	0.158425
	0.189115	0.2286	0.158425
	0.174388	0.240024	0.158425
	0.158972	0.2505	0.158425
	0.14293	0.259988	0.158425
	0.126323	0.268449	0.158425
	0.109217	0.275852	0.158425
	0.091681	0.282165	0.158425
	0.0737828	0.287365	0.158425
	0.0555934	0.291431	0.158425
	0.0371846	0.294346	0.158425
	0.0186291	0.2961	0.158425
	0.325125	-7.37834e-019	0.214809
	0.324484	0.0204148	0.214809
	0.322561	0.040749	0.214809
	0.319366	0.0609224	0.214809
	0.314911	0.0808553	0.214809
	0.309212	0.100469	0.214809
	0.302294	0.119687	0.214809
	0.294182	0.138432	0.214809
	0.284909	0.15663	0.214809
	0.274512	0.174211	0.214809
	0.263032	0.191104	0.214809
	0.250513	0.207243	0.214809
	0.237006	0.222563	0.214809
	0.222563	0.237006	0.214809
	0.207243	0.250513	0.214809
	0.191104	0.263032	0.214809
	0.174211	0.274512	0.214809
	0.15663	0.284909	0.214809
	0.138432	0.294182	0.214809
	0.119687	0.302294	0.214809
	0.100469	0.309212	0.214809
	0.0808553	0.314911	0.214809
	0.0609224	0.319366	0.214809
	0.040749	0.322561	0.214809
	0.0204148	0.324484	0.214809
	0.349963	5.66124e-019	0.275367
	0.349272	0.0219744	0.275367
	0.347203	0.043862	0.275367
	0.343764	0.0655765	0.275367
	0.338968	0.0870322	0.275367
	0.332835	0.108144	0.275367
	0.325387	0.12883	0.275367
	0.316656	0.149007	0.275367
	0.306675	0.168596	0.275367
	0.295483	0.18752	0.275367
	0.283126	0.205703	0.275367
	0.269651	0.223075	0.275367
	0.255112	0.239566	0.275367
	0.239566	0.255112	0.275367
	0.223075	0.269651	0.275367
	0.205703	0.283126	0.275367
	0.18752	0.295483	0.275367
	0.168596	0.306675	0.275367
	0.149007	0.316656	0.275367
	0.12883	0.325387	0.275367
	0.108144	0.332835	0.275367
	0.0870322	0.338968	0.275367
	0.0655765	0.343764	0.275367
	0.043862	0.347203	0.275367
	0.0219744	0.349272	0.275367
	0.372103	9.47787e-019	0.340084
	0.371368	0.0233645	0.340084
	0.369168	0.0466368	0.340084
	0.365512	0.0697251	0.340084
	0.360412	0.0925381	0.340084
	0.353891	0.114986	0.340084
	0.345972	0.13698	0.340084
	0.336688	0.158434	0.340084
	0.326076	0.179262	0.340084
	0.314177	0.199383	0.340084
	0.301037	0.218716	0.340084
	0.28671	0.237187	0.340084
	0.271251	0.254722	0.340084
	0.254722	0.271251	0.340084
	0.237187	0.28671	0.340084
	0.218716	0.301037	0.340084
	0.199383	0.314177	0.340084
	0.179262	0.326076	0.340084
	0.158434	0.336688	0.340084
	0.13698	0.345972	0.340084
	0.114986	0.353891	0.340084
	0.0925382	0.360412	0.340084
	0.0697251	0.365512	0.340084
	0.0466368	0.369168	0.340084
	0.0233645	0.371368	0.340084
	0.392119	-8.27212e-019	0.409678
	0.391345	0.0246214	0.409678
	0.389027	0.0491455	0.409678
	0.385174	0.0734758	0.409678
	0.3798	0.097516	0.409678
	0.372927	0.121171	0.409678
	0.364583	0.144349	0.409678
	0.3548	0.166956	0.409678
	0.343617	0.188905	0.409678
	0.331077	0.210108	0.409678
	0.317231	0.230482	0.409678
	0.302133	0.249946	0.409678
	0.285842	0.268424	0.409678
	0.268424	0.285842	0.409678
	0.249946	0.302133	0.409678
	0.230482	0.317231	0.409678
	0.210108	0.331077	0.409678
	0.188905	0.343617	0.409678
	0.166956	0.3548	0.409678
	0.144349	0.364583	0.409678
	0.121171	0.372927	0.409678
	0.097516	0.3798	0.409678
	0.0734758	0.385174	0.409678
	0.0491456	0.389027	0.409678
	0.0246214	0.391345	0.409678
	0.410376	4.88309e-019	0.484365
	0.409566	0.0257677	0.484365
	0.40714	0.0514338	0.484365
	0.403107	0.0768968	0.484365
	0.397484	0.102056	0.484365
	0.390291	0.126813	0.484365
	0.381558	0.15107	0.484365
	0.37132	0.17473	0.484365
	0.359615	0.1977	0.484365
	0.346492	0.219891	0.484365
	0.332001	0.241213	0.484365
	0.3162	0.261584	0.484365
	0.299151	0.280922	0.484365
	0.280922	0.299151	0.484365
	0.261584	0.3162	0.484365
	0.241213	0.332001	0.484365
	0.219891	0.346492	0.484365
	0.1977	0.359615	0.484365
	0.17473	0.37132	0.484365
	0.15107	0.381558	0.484365
	0.126813	0.390291	0.484365
	0.102056	0.397484	0.484365
	0.0768969	0.403107	0.484365
	0.0514338	0.40714	0.484365
	0.0257677	0.409566	0.484365
	0.427145	-4.47402e-019	0.564382
	0.426302	0.0268206	0.564382
	0.423776	0.0535354	0.564382
	0.419579	0.0800389	0.564382
	0.413725	0.106227	0.564382
	0.406239	0.131995	0.564382
	0.397149	0.157242	0.564382
	0.386492	0.181869	0.564382
	0.37431	0.205778	0.564382
	0.36065	0.228875	0.564382
	0.345567	0.251069	0.564382
	0.329121	0.272272	0.564382
	0.311375	0.292401	0.564382
	0.292401	0.311375	0.564382
	0.272272	0.329121	0.564382
	0.251069	0.345567	0.564382
	0.228875	0.36065	0.564382
	0.205778	0.37431	0.564382
	0.181869	0.386492	0.564382
	0.157242	0.397149	0.564382
	0.131995	0.406239	0.564382
	0.106227	0.413725	0.564382
	0.0800389	0.419579	0.564382
	0.0535354	0.423776	0.564382
	0.0268206	0.426302	0.564382
	0.442631	2.21155e-019	0.650096
	0.441758	0.027793	0.650096
	0.439141	0.0554764	0.650096
	0.434791	0.0829408	0.650096
	0.428725	0.110078	0.650096
	0.420967	0.136781	0.650096
	0.411548	0.162943	0.650096
	0.400505	0.188463	0.650096
	0.387881	0.213239	0.650096
	0.373726	0.237174	0.650096
	0.358096	0.260172	0.650096
	0.341053	0.282144	0.650096
	0.322664	0.303002	0.650096
	0.303002	0.322664	0.650096
	0.282144	0.341053	0.650096
	0.260172	0.358096	0.650096
	0.237174	0.373726	0.650096
	0.213239	0.387881	0.650096
	0.188463	0.400505	0.650096
	0.162943	0.411548	0.650096
	0.136781	0.420967	0.650096
	0.110078	0.428725	0.650096
	0.0829408	0.434791	0.650096
	0.0554764	0.439141	0.650096
	0.0277931	0.441758	0.650096
	0.456997	-6.09914e-019	0.741921
	0.456095	0.0286951	0.741921
	0.453394	0.0572769	0.741921
	0.448903	0.0856327	0.741921
	0.44264	0.113651	0.741921
	0.43463	0.14122	0.741921
	0.424905	0.168232	0.741921
	0.413503	0.19458	0.741921
	0.40047	0.22016	0.741921
	0.385856	0.244871	0.741921
	0.369719	0.268616	0.741921
	0.352122	0.291301	0.741921
	0.333137	0.312836	0.741921
	0.312836	0.333137	0.741921
	0.291301	0.352122	0.741921
	0.268616	0.369719	0.741921
	0.244871	0.385856	0.741921
	0.22016	0.40047	0.741921
	0.19458	0.413503	0.741921
	0.168232	0.424905	0.741921
	0.14122	0.43463	0.741921
	0.113651	0.44264	0.741921
	0.0856328	0.448903	0.741921
	0.057277	0.453394	0.741921
	0.0286951	0.456095	0.741921
	0.470371	6.01325e-019	0.840279
	0.469443	0.0295348	0.840279
	0.466662	0.0589531	0.840279
	0.462039	0.0881387	0.840279
	0.455593	0.116976	0.840279
	0.447349	0.145353	0.840279
	0.43734	0.173155	0.840279
	0.425604	0.200274	0.840279
	0.412189	0.226603	0.840279
	0.397147	0.252037	0.840279
	0.380538	0.276477	0.840279
	0.362427	0.299826	0.840279
	0.342886	0.321991	0.840279
	0.321991	0.342886	0.840279
	0.299826	0.362427	0.840279
	0.276477	0.380538	0.840279
	0.252037	0.397147	0.840279
	0.226603	0.412189	0.840279
	0.200274	0.425604	0.840279
	0.173155	0.43734	0.840279
	0.145353	0.447349	0.840279
	0.116977	0.455593	0.840279
	0.0881387	0.462039	0.840279
	0.0589531	0.466662	0.840279
	0.0295348	0.469443	0.840279
	0.482857	-5.35565e-019	0.945594
	0.481904	0.0303188	0.945594
	0.47905	0.060518	0.945594
	0.474304	0.0904784	0.945594
	0.467687	0.120082	0.945594
	0.459224	0.149211	0.945594
	0.448949	0.177752	0.945594
	0.436902	0.205591	0.945594
	0.423131	0.232618	0.945594
	0.40769	0.258728	0.945594
	0.39064	0.283816	0.945594
	0.372048	0.307785	0.945594
	0.351988	0.330538	0.945594
	0.330538	0.351988	0.945594
	0.307785	0.372048	0.945594
	0.283816	0.39064	0.945594
	0.258728	0.40769	0.945594
	0.232618	0.423131	0.945594
	0.205591	0.436902	0.945594
	0.177752	0.448949	0.945594
	0.149211	0.459224	0.945594
	0.120082	0.467687	0.945594
	0.0904784	0.474304	0.945594
	0.060518	0.47905	0.945594
	0.0303189	0.481904	0.945594
	0.494543	8.8937e-019	1.05828
	0.493567	0.0310526	1.05828
	0.490643	0.0619827	1.05828
	0.485783	0.0926681	1.05828
	0.479006	0.122988	1.05828
	0.470338	0.152822	1.05828
	0.459814	0.182053	1.05828
	0.447476	0.210566	1.05828
	0.433371	0.238248	1.05828
	0.417556	0.264989	1.05828
	0.400094	0.290685	1.05828
	0.381052	0.315234	1.05828
	0.360506	0.338538	1.05828
	0.338538	0.360506	1.05828
	0.315234	0.381052	1.05828
	0.290685	0.400094	1.05828
	0.264989	0.417556	1.05828
	0.238248	0.433371	1.05828
	0.210566	0.447476	1.05828
	0.182053	0.459814	1.05828
	0.152822	0.470338	1.05828
	0.122988	0.479006	1.05828
	0.0926681	0.485783	1.05828
	0.0619827	0.490643	1.05828
	0.0310526	0.493567	1.05828
	0.505503	-1.24124e-018	1.17875
	0.504506	0.0317408	1.17875
	0.501517	0.0633563	1.17875
	0.496549	0.0947218	1.17875
	0.489622	0.125714	1.17875
	0.480762	0.156209	1.17875
	0.470005	0.186088	1.17875
	0.457393	0.215233	1.17875
	0.442976	0.243528	1.17875
	0.42681	0.270862	1.17875
	0.408961	0.297127	1.17875
	0.389497	0.32222	1.17875
	0.368496	0.346041	1.17875
	0.346041	0.368496	1.17875
	0.32222	0.389497	1.17875
	0.297127	0.408961	1.17875
	0.270862	0.42681	1.17875
	0.243528	0.442976	1.17875
	0.215233	0.457393	1.17875
	0.186088	0.470005	1.17875
	0.156209	0.480762	1.17875
	0.125714	0.489622	1.17875
	0.0947219	0.496549	1.17875
	0.0633564	0.501517	1.17875
	0.0317408	0.504506	1.17875
	0.515802	1.36495e-018	1.3074
	0.514784	0.0323875	1.3074
	0.511735	0.0646471	1.3074
	0.506666	0.0966517	1.3074
	0.499597	0.128275	1.3074
	0.490557	0.159392	1.3074
	0.479581	0.189879	1.3074
	0.466712	0.219618	1.3074
	0.452001	0.24849	1.3074
	0.435506	0.276381	1.3074
	0.417293	0.303181	1.3074
	0.397432	0.328785	1.3074
	0.376004	0.353091	1.3074
	0.353091	0.376004	1.3074
	0.328785	0.397432	1.3074
	0.303181	0.417293	1.3074
	0.276381	0.435506	1.3074
	0.24849	0.452001	1.3074
	0.219618	0.466712	1.3074
	0.189879	0.479581	1.3074
	0.159392	0.490557	1.3074
	0.128275	0.499597	1.3074
	0.0966517	0.506666	1.3074
	0.0646472	0.511735	1.3074
	0.0323875	0.514784	1.3074
	0.525496	-1.55764e-018	1.44461
	0.524459	0.0329962	1.44461
	0.521352	0.0658621	1.44461
	0.516188	0.0984681	1.44461
	0.508987	0.130686	1.44461
	0.499776	0.162387	1.44461
	0.488594	0.193448	1.44461
	0.475483	0.223745	1.44461
	0.460496	0.25316	1.44461
	0.443691	0.281575	1.44461
	0.425135	0.308879	1.44461
	0.404902	0.334964	1.44461
	0.38307	0.359727	1.44461
	0.359727	0.38307	1.44461
	0.334964	0.404902	1.44461
	0.308879	0.425135	1.44461
	0.281575	0.443691	1.44461
	0.25316	0.460496	1.44461
	0.223745	0.475483	1.44461
	0.193448	0.488594	1.44461
	0.162387	0.499776	1.44461
	0.130686	0.508987	1.44461
	0.0984682	0.516188	1.44461
	0.0658621	0.521352	1.44461
	0.0329962	0.524459	1.44461
	0.534635	1.32932e-018	1.59074
	0.53358	0.03357	1.59074
	0.530419	0.0670075	1.59074
	0.525165	0.100181	1.59074
	0.517838	0.132958	1.59074
	0.508468	0.165211	1.59074
	0.497091	0.196812	1.59074
	0.483752	0.227636	1.59074
	0.468504	0.257562	1.59074
	0.451407	0.286472	1.59074
	0.432529	0.314251	1.59074
	0.411943	0.340789	1.59074
	0.389732	0.365983	1.59074
	0.365983	0.389732	1.59074
	0.340789	0.411943	1.59074
	0.314251	0.432529	1.59074
	0.286472	0.451407	1.59074
	0.257562	0.468504	1.59074
	0.227636	0.483752	1.59074
	0.196812	0.497091	1.59074
	0.165211	0.508468	1.59074
	0.132958	0.517838	1.59074
	0.100181	0.525165	1.59074
	0.0670075	0.530419	1.59074
	0.03357	0.53358	1.59074
	0.543263	-1.4982e-018	1.74613
	0.542191	0.0341118	1.74613
	0.538979	0.0680889	1.74613
	0.53364	0.101797	1.74613
	0.526195	0.135104	1.74613
	0.516674	0.167878	1.74613
	0.505113	0.199988	1.74613
	0.491559	0.23131	1.74613
	0.476065	0.261719	1.74613
	0.458692	0.291095	1.74613
	0.439509	0.319322	1.74613
	0.418591	0.346289	1.74613
	0.396022	0.371889	1.74613
	0.371889	0.396022	1.74613
	0.346289	0.418591	1.74613
	0.319322	0.439509	1.74613
	0.291095	0.458692	1.74613
	0.261719	0.476065	1.74613
	0.23131	0.491559	1.74613
	0.199988	0.505113	1.74613
	0.167878	0.516674	1.74613
	0.135104	0.526195	1.74613
	0.101797	0.53364	1.74613
	0.0680889	0.538979	1.74613
	0.0341118	0.542191	1.74613
	0.55142	1.75833e-018	1.91109
	0.550332	0.034624	1.91109
	0.547072	0.0691113	1.91109
	0.541653	0.103326	1.91109
	0.534096	0.137133	1.91109
	0.524432	0.170398	1.91109
	0.512698	0.202991	1.91109
	0.49894	0.234783	1.91109
	0.483213	0.265649	1.91109
	0.46558	0.295466	1.91109
	0.446108	0.324117	1.91109
	0.424877	0.351489	1.91109
	0.401968	0.377473	1.91109
	0.377473	0.401968	1.91109
	0.351489	0.424877	1.91109
	0.324117	0.446108	1.91109
	0.295466	0.46558	1.91109
	0.265649	0.483213	1.91109
	0.234783	0.49894	1.91109
	0.202991	0.512698	1.91109
	0.170398	0.524432	1.91109
	0.137133	0.534096	1.91109
	0.103326	0.541653	1.91109
	0.0691113	0.547072	1.91109
	0.034624	0.550332	1.91109
	0.559143	-8.96276e-019	2.08599
	0.55804	0.0351089	2.08599
	0.554734	0.0700792	2.08599
	0.549239	0.104773	2.08599
	0.541576	0.139053	2.08599
	0.531776	0.172785	2.08599
	0.519878	0.205834	2.08599
	0.505928	0.238071	2.08599
	0.489981	0.269369	2.08599
	0.4721	0.299604	2.08599
	0.452356	0.328656	2.08599
	0.430827	0.356411	2.08599
	0.407598	0.38276	2.08599
	0.38276	0.407598	2.08599
	0.356411	0.430827	2.08599
	0.328656	0.452356	2.08599
	0.299604	0.4721	2.08599
	0.269369	0.489981	2.08599
	0.238071	0.505928	2.08599
	0.205834	0.519878	2.08599
	0.172785	0.531776	2.08599
	0.139053	0.541576	2.08599
	0.104773	0.549239	2.08599
	0.0700792	0.554734	2.08599
	0.0351089	0.55804	2.08599
	0.566463	1.90377e-018	2.27117
	0.565345	0.0355685	2.27117
	0.561996	0.0709966	2.27117
	0.556429	0.106145	2.27117
	0.548667	0.140874	2.27117
	0.538738	0.175047	2.27117
	0.526684	0.208529	2.27117
	0.512551	0.241188	2.27117
	0.496395	0.272896	2.27117
	0.478281	0.303526	2.27117
	0.458278	0.332959	2.27117
	0.436467	0.361077	2.27117
	0.412934	0.387771	2.27117
	0.387771	0.412934	2.27117
	0.361077	0.436467	2.27117
	0.332959	0.458278	2.27117
	0.303526	0.478281	2.27117
	0.272896	0.496395	2.27117
	0.241188	0.512551	2.27117
	0.208529	0.526684	2.27117
	0.175047	0.538738	2.27117
	0.140874	0.548667	2.27117
	0.106145	0.556429	2.27117
	0.0709967	0.561996	2.27117
	0.0355685	0.565345	2.27117
	0.57341	-2.29032e-018	2.46647
	0.572279	0.0360047	2.46647
	0.568889	0.0718673	2.46647
	0.563253	0.107446	2.46647
	0.555395	0.142601	2.46647
	0.545345	0.177193	2.46647
	0.533143	0.211086	2.46647
	0.518837	0.244146	2.46647
	0.502483	0.276242	2.46647
	0.484146	0.307248	2.46647
	0.463899	0.337042	2.46647
	0.44182	0.365505	2.46647
	0.417998	0.392526	2.46647
	0.392526	0.417998	2.46647
	0.365505	0.44182	2.46647
	0.337042	0.463899	2.46647
	0.307249	0.484146	2.46647
	0.276242	0.502483	2.46647
	0.244146	0.518837	2.46647
	0.211086	0.533143	2.46647
	0.177193	0.545345	2.46647
	0.142601	0.555395	2.46647
	0.107446	0.563253	2.46647
	0.0718674	0.568889	2.46647
	0.0360047	0.572279	2.46647
	0.580012	1.50787e-018	2.67133
	0.578868	0.0364193	2.67133
	0.575439	0.0726948	2.67133
	0.569738	0.108683	2.67133
	0.56179	0.144243	2.67133
	0.551624	0.179234	2.67133
	0.539282	0.213517	2.67133
	0.524811	0.246957	2.67133
	0.508268	0.279423	2.67133
	0.48972	0.310786	2.67133
	0.46924	0.340923	2.67133
	0.446907	0.369714	2.67133
	0.422811	0.397046	2.67133
	0.397046	0.422811	2.67133
	0.369714	0.446907	2.67133
	0.340923	0.46924	2.67133
	0.310786	0.48972	2.67133
	0.279423	0.508268	2.67133
	0.246957	0.524811	2.67133
	0.213517	0.539282	2.67133
	0.179234	0.551624	2.67133
	0.144243	0.56179	2.67133
	0.108683	0.569738	2.67133
	0.0726948	0.575439	2.67133
	0.0364193	0.578868	2.67133
	0.586296	-5.39271e-019	2.88792
	0.585139	0.0368138	2.88792
	0.581673	0.0734824	2.88792
	0.575911	0.109861	2.88792
	0.567877	0.145806	2.88792
	0.557601	0.181175	2.88792
	0.545124	0.21583	2.88792
	0.530497	0.249633	2.88792
	0.513775	0.28245	2.88792
	0.495026	0.314153	2.88792
	0.474324	0.344616	2.88792
	0.451749	0.373719	2.88792
	0.427391	0.401347	2.88792
	0.401347	0.427391	2.88792
	0.373719	0.451749	2.88792
	0.344616	0.474323	2.88792
	0.314153	0.495026	2.88792
	0.28245	0.513775	2.88792
	0.249633	0.530497	2.88792
	0.21583	0.545124	2.88792
	0.181175	0.557601	2.88792
	0.145806	0.567877	2.88792
	0.109861	0.575911	2.88792
	0.0734824	0.581673	2.88792
	0.0368139	0.585139	2.88792
	0.592282	8.18509e-019	3.12067
	0.591114	0.0371897	3.12067
	0.587612	0.0742326	3.12067
	0.581791	0.110983	3.12067
	0.573675	0.147295	3.12067
	0.563294	0.183025	3.12067
	0.55069	0.218034	3.12067
	0.535913	0.252182	3.12067
	0.519021	0.285334	3.12067
	0.50008	0.317361	3.12067
	0.479166	0.348135	3.12067
	0.456361	0.377535	3.12067
	0.431755	0.405445	3.12067
	0.405445	0.431755	3.12067
	0.377535	0.456361	3.12067
	0.348135	0.479166	3.12067
	0.317361	0.50008	3.12067
	0.285334	0.519021	3.12067
	0.252182	0.535913	3.12067
	0.218034	0.55069	3.12067
	0.183025	0.563294	3.12067
	0.147295	0.573675	3.12067
	0.110983	0.581791	3.12067
	0.0742327	0.587612	3.12067
	0.0371897	0.591114	3.12067
	0.597982	-1.27999e-018	3.3462
	0.596802	0.0375476	3.3462
	0.593266	0.074947	3.3462
	0.58739	0.112051	3.3462
	0.579195	0.148712	3.3462
	0.568714	0.184787	3.3462
	0.555989	0.220132	3.3462
	0.54107	0.254608	3.3462
	0.524015	0.28808	3.3462
	0.504893	0.320415	3.3462
	0.483777	0.351485	3.3462
	0.460753	0.381168	3.3462
	0.43591	0.409347	3.3462
	0.409347	0.43591	3.3462
	0.381168	0.460753	3.3462
	0.351485	0.483777	3.3462
	0.320415	0.504893	3.3462
	0.28808	0.524015	3.3462
	0.254608	0.54107	3.3462
	0.220132	0.555989	3.3462
	0.184787	0.568714	3.3462
	0.148712	0.579195	3.3462
	0.112051	0.58739	3.3462
	0.074947	0.593266	3.3462
	0.0375476	0.596802	3.3462
	0.603446	1.07438e-018	3.43345
	0.602255	0.0378907	3.43345
	0.598687	0.0756318	3.43345
	0.592757	0.113074	3.43345
	0.584487	0.150071	3.43345
	0.573911	0.186475	3.43345
	0.56107	0.222143	3.43345
	0.546014	0.256935	3.43345
	0.528803	0.290712	3.43345
	0.509506	0.323342	3.43345
	0.488198	0.354696	3.43345
	0.464963	0.384651	3.43345
	0.439893	0.413087	3.43345
	0.413087	0.439893	3.43345
	0.384651	0.464963	3.43345
	0.354696	0.488198	3.43345
	0.323342	0.509506	3.43345
	0.290712	0.528803	3.43345
	0.256935	0.546014	3.43345
	0.222143	0.56107	3.43345
	0.186475	0.573911	3.43345
	0.150071	0.584487	3.43345
	0.113074	0.592757	3.43345
	0.0756318	0.598687	3.43345
	0.0378907	0.602255	3.43345
	0.608914	-1.09988e-018	3.04223
	0.607713	0.038234	3.04223
	0.604113	0.0763172	3.04223
	0.598129	0.114099	3.04223
	0.589784	0.151431	3.04223
	0.579112	0.188165	3.04223
	0.566154	0.224156	3.04223
	0.550962	0.259263	3.04223
	0.533596	0.293347	3.04223
	0.514123	0.326273	3.04223
	0.492622	0.357911	3.04223
	0.469176	0.388137	3.04223
	0.443879	0.41683	3.04223
	0.41683	0.443879	3.04223
	0.388137	0.469176	3.04223
	0.357911	0.492622	3.04223
	0.326273	0.514123	3.04223
	0.293347	0.533596	3.04223
	0.259263	0.550962	3.04223
	0.224156	0.566154	3.04223
	0.188165	0.579112	3.04223
	0.151431	0.589784	3.04223
	0.114099	0.598129	3.04223
	0.0763172	0.604113	3.04223
	0.0382341	0.607713	3.04223
	0.615243	4.67329e-019	2.61629
	0.614029	0.0386314	2.61629
	0.610391	0.0771104	2.61629
	0.604345	0.115285	2.61629
	0.595914	0.153005	2.61629
	0.585131	0.19012	2.61629
	0.572038	0.226486	2.61629
	0.556688	0.261958	2.61629
	0.539141	0.296395	2.61629
	0.519467	0.329664	2.61629
	0.497742	0.361631	2.61629
	0.474053	0.39217	2.61629
	0.448493	0.421163	2.61629
	0.421163	0.448493	2.61629
	0.39217	0.474053	2.61629
	0.361631	0.497742	2.61629
	0.329664	0.519467	2.61629
	0.296395	0.539141	2.61629
	0.261958	0.556688	2.61629
	0.226486	0.572038	2.61629
	0.19012	0.585131	2.61629
	0.153005	0.595914	2.61629
	0.115285	0.604345	2.61629
	0.0771104	0.610391	2.61629
	0.0386314	0.614029	2.61629
	0.622768	4.9122e-021	1.15564
	0.621539	0.0391039	1.15564
	0.617857	0.0780535	1.15564
	0.611737	0.116695	1.15564
	0.603203	0.154876	1.15564
	0.592287	0.192446	1.15564
	0.579035	0.229256	1.15564
	0.563497	0.265162	1.15564
	0.545736	0.300021	1.15564
	0.52582	0.333696	1.15564
	0.50383	0.366054	1.15564
	0.479851	0.396967	1.15564
	0.453978	0.426314	1.15564
	0.426314	0.453978	1.15564
	0.396967	0.479851	1.15564
	0.366054	0.50383	1.15564
	0.333696	0.52582	1.15564
	0.300021	0.545736	1.15564
	0.265162	0.563497	1.15564
	0.229256	0.579035	1.15564
	0.192446	0.592287	1.15564
	0.154876	0.603203	1.15564
	0.116695	0.611737	1.15564
	0.0780535	0.617857	1.15564
	0.0391039	0.621539	1.15564
	0.640034	5.2496e-022	1.00169
	0.638771	0.0401881	1.00169
	0.634987	0.0802176	1.00169
	0.628697	0.11993	1.00169
	0.619926	0.15917	1.00169
	0.608709	0.197781	1.00169
	0.595089	0.235612	1.00169
	0.57912	0.272513	1.00169
	0.560866	0.308339	1.00169
	0.540399	0.342947	1.00169
	0.517799	0.376203	1.00169
	0.493155	0.407973	1.00169
	0.466565	0.438134	1.00169
	0.438134	0.466565	1.00169
	0.407973	0.493155	1.00169
	0.376203	0.517799	1.00169
	0.342947	0.540399	1.00169
	0.308339	0.560866	1.00169
	0.272513	0.57912	1.00169
	0.235612	0.595089	1.00169
	0.197781	0.608709	1.00169
	0.15917	0.619926	1.00169
	0.11993	0.628697	1.00169
	0.0802176	0.634987	1.00169
	0.0401881	0.638771	1.00169
	0.66	1.04369e-022	1
	0.658698	0.0414417	1
	0.654796	0.0827199	1
	0.64831	0.123672	1
	0.639265	0.164135	1
	0.627697	0.203951	1
	0.613652	0.242962	1
	0.597186	0.281014	1
	0.578362	0.317957	1
	0.557256	0.353646	1
	0.533951	0.387938	1
	0.508539	0.4207	1
	0.481119	0.451801	1
	0.451801	0.481119	1
	0.4207	0.508539	1
	0.387938	0.533951	1
	0.353646	0.557256	1
	0.317957	0.578362	1
	0.281014	0.597186	1
	0.242962	0.613652	1
	0.203951	0.627697	1
	0.164135	0.639265	1
	0.123672	0.64831	1
	0.08272	0.654796	1
	0.0414418	0.658698	1
	0.68	1.22399e-022	1
	0.678658	0.0426976	1
	0.674638	0.0852266	1
	0.667955	0.127419	1
	0.658637	0.169109	1
	0.646718	0.210132	1
	0.632248	0.250325	1
	0.615282	0.28953	1
	0.595889	0.327592	1
	0.574143	0.364362	1
	0.550132	0.399694	1
	0.523949	0.433448	1
	0.495699	0.465492	1
	0.465492	0.495699	1
	0.433448	0.523949	1
	0.399694	0.550132	1
	0.364362	0.574143	1
	0.327593	0.595889	1
	0.28953	0.615282	1
	0.250325	0.632248	1
	0.210132	0.646718	1
	0.169109	0.658637	1
	0.127419	0.667955	1
	0.0852266	0.674638	1
	0.0426976	0.678658	1
	0.7	3.88729e-023	1
	0.698619	0.0439534	1
	0.69448	0.0877333	1
	0.687601	0.131167	1
	0.678008	0.174083	1
	0.66574	0.216312	1
	0.650844	0.257687	1
	0.633379	0.298045	1
	0.613415	0.337228	1
	0.59103	0.375079	1
	0.566312	0.41145	1
	0.539359	0.446197	1
	0.510278	0.479183	1
	0.479183	0.510278	1
	0.446197	0.539359	1
	0.41145	0.566312	1
	0.375079	0.59103	1
	0.337228	0.613415	1
	0.298046	0.633379	1
	0.257687	0.650844	1
	0.216312	0.66574	1
	0.174083	0.678008	1
	0.131167	0.687601	1
	0.0877333	0.69448	1
	0.0439534	0.698619	1
	0.72	3.9709e-023	1
	0.718579	0.0452092	1
	0.714323	0.0902399	1
	0.707247	0.134915	1
	0.69738	0.179057	1
	0.684761	0.222492	1
	0.669439	0.26505	1
	0.651475	0.306561	1
	0.630941	0.346863	1
	0.607916	0.385795	1
	0.582492	0.423205	1
	0.55477	0.458945	1
	0.524857	0.492874	1
	0.492874	0.524857	1
	0.458945	0.55477	1
	0.423205	0.582492	1
	0.385795	0.607916	1
	0.346863	0.630941	1
	0.306561	0.651475	1
	0.26505	0.669439	1
	0.222492	0.684761	1
	0.179057	0.69738	1
	0.134915	0.707247	1
	0.0902399	0.714323	1
	0.0452092	0.718579	1
	0.74	1.31614e-022	1
	0.73854	0.046465	1
	0.734165	0.0927466	1
	0.726893	0.138662	1
	0.716752	0.184031	1
	0.703782	0.228673	1
	0.688035	0.272412	1
	0.669572	0.315077	1
	0.648467	0.356498	1
	0.624803	0.396512	1
	0.598673	0.434961	1
	0.57018	0.471694	1
	0.539437	0.506565	1
	0.506565	0.539437	1
	0.471694	0.57018	1
	0.434961	0.598673	1
	0.396512	0.624803	1
	0.356498	0.648467	1
	0.315077	0.669572	1
	0.272412	0.688035	1
	0.228673	0.703782	1
	0.184031	0.716752	1
	0.138662	0.726893	1
	0.0927466	0.734165	1
	0.046465	0.73854	1
	0.76	1.31614e-022	1
	0.7585	0.0477208	1
	0.754007	0.0952533	1
	0.746538	0.14241	1
	0.736123	0.189004	1
	0.722803	0.234853	1
	0.70663	0.279775	1
	0.687669	0.323592	1
	0.665993	0.366133	1
	0.641689	0.407228	1
	0.614853	0.446717	1
	0.58559	0.484442	1
	0.554016	0.520256	1
	0.520256	0.554016	1
	0.484442	0.58559	1
	0.446717	0.614853	1
	0.407228	0.641689	1
	0.366133	0.665993	1
	0.323592	0.687669	1
	0.279775	0.70663	1
	0.234853	0.722803	1
	0.189004	0.736123	1
	0.14241	0.746538	1
	0.0952533	0.754007	1
	0.0477208	0.7585	1
	0.78	1.31614e-022	1
	0.778461	0.0489766	1
	0.773849	0.0977599	1
	0.766184	0.146157	1
	0.755495	0.193978	1
	0.741824	0.241033	1
	0.725226	0.287137	1
	0.705765	0.332108	1
	0.683519	0.375768	1
	0.658576	0.417945	1
	0.631033	0.458472	1
	0.601	0.497191	1
	0.568596	0.533947	1
	0.533947	0.568596	1
	0.497191	0.601	1
	0.458473	0.631033	1
	0.417945	0.658576	1
	0.375768	0.683519	1
	0.332108	0.705765	1
	0.287137	0.725226	1
	0.241033	0.741824	1
	0.193978	0.755495	1
	0.146157	0.766184	1
	0.0977599	0.773849	1
	0.0489766	0.778461	1
	0.8	1.31614e-022	1
	0.798421	0.0502324	1
	0.793692	0.100267	1
	0.78583	0.149905	1
	0.774867	0.198952	1
	0.760845	0.247214	1
	0.743821	0.2945	1
	0.723862	0.340623	1
	0.701045	0.385403	1
	0.675462	0.428661	1
	0.647214	0.470228	1
	0.616411	0.509939	1
	0.583175	0.547638	1
	0.547638	0.583175	1
	0.509939	0.616411	1
	0.470228	0.647214	1
	0.428661	0.675462	1
	0.385403	0.701045	1
	0.340623	0.723862	1
	0.2945	0.743821	1
	0.247214	0.760845	1
	0.198952	0.774867	1
	0.149905	0.78583	1
	0.100267	0.793692	1
	0.0502324	0.798421	1
	0.82	3.9709e-023	1
	0.818382	0.0514882	1
	0.813534	0.102773	1
	0.805476	0.153653	1
	0.794238	0.203926	1
	0.779866	0.253394	1
	0.762417	0.301862	1
	0.741958	0.349139	1
	0.718571	0.395038	1
	0.692349	0.439378	1
	0.663394	0.481984	1
	0.631821	0.522688	1
	0.597754	0.561329	1
	0.561329	0.597754	1
	0.522688	0.631821	1
	0.481984	0.663394	1
	0.439378	0.692349	1
	0.395038	0.718571	1
	0.349139	0.741958	1
	0.301862	0.762417	1
	0.253394	0.779866	1
	0.203926	0.794238	1
	0.153653	0.805476	1
	0.102773	0.813534	1
	0.0514882	0.818382	1
	0.84	3.9709e-023	1
	0.838342	0.052744	1
	0.833376	0.10528	1
	0.825121	0.1574	1
	0.81361	0.2089	1
	0.798887	0.259574	1
	0.781012	0.309225	1
	0.760055	0.357655	1
	0.736098	0.404673	1
	0.709235	0.450095	1
	0.679574	0.49374	1
	0.647231	0.535436	1
	0.612334	0.57502	1
	0.57502	0.612334	1
	0.535436	0.647231	1
	0.49374	0.679574	1
	0.450095	0.709235	1
	0.404673	0.736098	1
	0.357655	0.760055	1
	0.309225	0.781012	1
	0.259574	0.798887	1
	0.2089	0.81361	1
	0.1574	0.825121	1
	0.10528	0.833376	1
	0.0527441	0.838342	1
	0.86	1.31614e-022	1
	0.858303	0.0539998	1
	0.853219	0.107787	1
	0.844767	0.161148	1
	0.832982	0.213873	1
	0.817909	0.265755	1
	0.799608	0.316587	1
	0.778151	0.36617	1
	0.753624	0.414308	1
	0.726122	0.460811	1
	0.695755	0.505495	1
	0.662641	0.548185	1
	0.626913	0.588711	1
	0.588711	0.626913	1
	0.548185	0.662641	1
	0.505495	0.695755	1
	0.460811	0.726122	1
	0.414308	0.753624	1
	0.36617	0.778151	1
	0.316587	0.799608	1
	0.265755	0.817909	1
	0.213873	0.832982	1
	0.161148	0.844767	1
	0.107787	0.853219	1
	0.0539999	0.858303	1
	0.88	1.31614e-022	1
	0.878264	0.0552557	1
	0.873061	0.110293	1
	0.864413	0.164896	1
	0.852353	0.218847	1
	0.83693	0.271935	1
	0.818203	0.32395	1
	0.796248	0.374686	1
	0.77115	0.423943	1
	0.743009	0.471528	1
	0.711935	0.517251	1
	0.678052	0.560933	1
	0.641492	0.602401	1
	0.602401	0.641492	1
	0.560933	0.678052	1
	0.517251	0.711935	1
	0.471528	0.743009	1
	0.423943	0.77115	1
	0.374686	0.796248	1
	0.32395	0.818203	1
	0.271935	0.83693	1
	0.218847	0.852353	1
	0.164896	0.864413	1
	0.110293	0.873061	1
	0.0552557	0.878264	1
	0.9	1.31614e-022	1
	0.898224	0.0565115	1
	0.892903	0.1128	1
	0.884059	0.168643	1
	0.871725	0.223821	1
	0.855951	0.278115	1
	0.836799	0.331312	1
	0.814344	0.383201	1
	0.788676	0.433578	1
	0.759895	0.482244	1
	0.728115	0.529007	1
	0.693462	0.573682	1
	0.656072	0.616092	1
	0.616092	0.656072	1
	0.573682	0.693462	1
	0.529007	0.728115	1
	0.482244	0.759895	1
	0.433578	0.788676	1
	0.383201	0.814344	1
	0.331312	0.836799	1
	0.278115	0.855951	1
	0.223821	0.871725	1
	0.168643	0.884059	1
	0.1128	0.892903	1
	0.0565115	0.898224	1
	0.92	1.31614e-022	1
	0.918185	0.0577673	1
	0.912746	0.115307	1
	0.903704	0.172391	1
	0.891097	0.228795	1
	0.874972	0.284296	1
	0.855394	0.338675	1
	0.832441	0.391717	1
	0.806202	0.443213	1
	0.776782	0.492961	1
	0.744296	0.540762	1
	0.708872	0.58643	1
	0.670651	0.629783	1
	0.629783	0.670651	1
	0.58643	0.708872	1
	0.540762	0.744296	1
	0.492961	0.776782	1
	0.443213	0.806202	1
	0.391717	0.832441	1
	0.338675	0.855394	1
	0.284296	0.874972	1
	0.228795	0.891097	1
	0.172391	0.903704	1
	0.115307	0.912746	1
	0.0577673	0.918185	1
	0.94	3.9709e-023	1
	0.938145	0.0590231	1
	0.932588	0.117813	1
	0.92335	0.176138	1
	0.910468	0.233768	1
	0.893993	0.290476	1
	0.87399	0.346037	1
	0.850537	0.400233	1
	0.823728	0.452848	1